LAMMPS (2 Aug 2023)
OMP_NUM_THREADS environment is not set. Defaulting to 1 thread. (src/comm.cpp:98)
  using 1 OpenMP thread(s) per MPI task
#--------------------------- Simulation variables -----------------------------#
# Initalizes the random number generator.
variable RND equal round(random(0,999,${RANDOM}))
variable RND equal round(random(0,999,1))

# Simulation control parameters.
variable t_eq equal 20000 # Equilibration time.
variable t equal 100000 # Switching time.

#---------------------------- Atomic setup ------------------------------------#
units            metal
# Create atoms.
lattice          bcc ${a}
lattice          bcc 2.9429833333333333
Lattice spacing in x,y,z = 2.9429833 2.9429833 2.9429833
region           sim_box block 0 18 0 18 0 18
create_box       1 sim_box
Created orthogonal box = (0 0 0) to (52.9737 52.9737 52.9737)
  4 by 4 by 4 MPI processor grid
create_atoms     1 box
Created 11664 atoms
  using lattice units in orthogonal box = (0 0 0) to (52.9737 52.9737 52.9737)
  create_atoms CPU = 0.001 seconds

# Define interatomic potential.
pair_style       eam
pair_coeff       * * ../Fe.eam
#----------------------------- Run simulation ---------------------------------#
# Initial temperature to accelerate equilibration.
velocity all create ${T} ${RND} mom yes rot yes dist gaussian
velocity all create 900 ${RND} mom yes rot yes dist gaussian
velocity all create 900 80 mom yes rot yes dist gaussian

# Integrator, Frenkel-Ladd modifier, and thermostat.
fix fe all nve
fix fti all ti/spring ${k} ${t} ${t_eq} function 2
fix fti all ti/spring 3.5636139444845223 ${t} ${t_eq} function 2
fix fti all ti/spring 3.5636139444845223 100000 ${t_eq} function 2
fix fti all ti/spring 3.5636139444845223 100000 20000 function 2
fix ft all langevin ${T} ${T} 0.1 ${RND} zero yes
fix ft all langevin 900 ${T} 0.1 ${RND} zero yes
fix ft all langevin 900 900 0.1 ${RND} zero yes
fix ft all langevin 900 900 0.1 178 zero yes
compute tcom all temp/com
fix_modify ft temp tcom

# Setup thermo output.
variable dE equal pe-f_fti
variable lambda equal f_fti[1]

thermo_style custom step pe ke etotal temp lx ly lz vol press pxx pyy pzz v_dE v_lambda
thermo 100
thermo_modify line yaml
thermo_modify flush yes

# Forward integration.
run ${t_eq}
run 20000

CITE-CITE-CITE-CITE-CITE-CITE-CITE-CITE-CITE-CITE-CITE-CITE-CITE

Your simulation uses code contributions which should be cited:

- ti/spring command: doi:10.1016/j.commatsci.2015.10.050

@article{freitas2016,
  author={Freitas, Rodrigo and Asta, Mark and de Koning, Maurice},
  title={Nonequilibrium Free-Energy Calculation of Solids Using {LAMMPS}},
  journal={Computational Materials Science},
  volume={112},
  pages={333--341},
  year={2016},
  publisher={Elsevier}
}

CITE-CITE-CITE-CITE-CITE-CITE-CITE-CITE-CITE-CITE-CITE-CITE-CITE

Neighbor list info ...
  update: every = 1 steps, delay = 0 steps, check = yes
  max neighbors/atom: 2000, page size: 100000
  master list distance cutoff = 6.409104
  ghost atom cutoff = 6.409104
  binsize = 3.204552, bins = 17 17 17
  1 neighbor lists, perpetual/occasional/extra = 1 0 0
  (1) pair eam, perpetual
      attributes: half, newton on
      pair build: half/bin/atomonly/newton
      stencil: half/bin/3d
      bin: standard
Per MPI rank memory allocation (min/avg/max) = 3.736 | 3.736 | 3.736 Mbytes
---
keywords: ['Step', 'PotEng', 'KinEng', 'TotEng', 'Temp', 'Lx', 'Ly', 'Lz', 'Volume', 'Press', 'Pxx', 'Pyy', 'Pzz', 'v_dE', 'v_lambda', ]
data:
  - [0, -49644.4056571871, 1356.8049640215, -48287.6006931656, 900, 52.9737, 52.9737, 52.9737, 148655.479860519, -110066.32699059, -109960.862251823, -110133.461048839, -110104.657671106, -49644.4056571871, 0, ]
  - [100, -48784.032996648, 1133.24165152836, -47650.7913451196, 751.705302840681, 52.9737, 52.9737, 52.9737, 148655.479860519, -15613.1239310984, -16373.8736329655, -14837.8364771005, -15627.6616832292, -48784.032996648, 0, ]
  - [200, -48700.6249090646, 1282.28960769737, -47418.3353013672, 850.572246955123, 52.9737, 52.9737, 52.9737, 148655.479860519, -6306.46277199607, -6169.72265944012, -6590.85076208096, -6158.81489446714, -48700.6249090646, 0, ]
  - [300, -48644.8417497155, 1322.78698407869, -47322.0547656369, 877.435089964747, 52.9737, 52.9737, 52.9737, 148655.479860519, -429.036708968893, -1173.61548105264, -351.055801346258, 237.561155492217, -48644.8417497155, 0, ]
  - [400, -48640.4851105821, 1347.58846819795, -47292.8966423842, 893.886485927489, 52.9737, 52.9737, 52.9737, 148655.479860519, -624.120301269576, -936.625557706528, -415.418059519224, -520.317286582974, -48640.4851105821, 0, ]
  - [500, -48641.4173840452, 1345.38939454024, -47296.027989505, 892.427789693013, 52.9737, 52.9737, 52.9737, 148655.479860519, -254.359739749191, -416.495211531981, 12.6603260995961, -359.244333815181, -48641.4173840452, 0, ]
  - [600, -48623.9776950313, 1360.25329485231, -47263.724400179, 902.287357306338, 52.9737, 52.9737, 52.9737, 148655.479860519, 2147.41689458342, 2191.90657008531, 2144.33540106241, 2106.00871260253, -48623.9776950313, 0, ]
  - [700, -48628.7886534217, 1349.25483909849, -47279.5338143232, 894.991828147087, 52.9737, 52.9737, 52.9737, 148655.479860519, 1230.18859555397, 929.745835002815, 1179.26644672493, 1581.55350493417, -48628.7886534217, 0, ]
  - [800, -48637.1525418523, 1356.69682533481, -47280.4557165175, 899.928269117077, 52.9737, 52.9737, 52.9737, 148655.479860519, 7.46016090387118, -167.861033544974, 133.671169250053, 56.5703470065374, -48637.1525418523, 0, ]
  - [900, -48627.7112344486, 1353.24572896173, -47274.4655054869, 897.639077362824, 52.9737, 52.9737, 52.9737, 148655.479860519, 1094.83756229102, 868.248385487649, 1077.14223523863, 1339.1220661468, -48627.7112344486, 0, ]
  - [1000, -48637.4088770068, 1378.72145241959, -47258.6874245872, 914.537711816601, 52.9737, 52.9737, 52.9737, 148655.479860519, 50.2249554136514, -6.98717634273423, -478.58749577803, 636.24953836172, -48637.4088770068, 0, ]
  - [1100, -48631.8656156421, 1371.57351047126, -47260.2921051708, 909.796317199036, 52.9737, 52.9737, 52.9737, 148655.479860519, 736.945792946342, 532.930340499789, 886.849955325688, 791.057083013549, -48631.8656156421, 0, ]
  - [1200, -48628.9263787901, 1338.25757630878, -47290.6688024813, 887.697090308419, 52.9737, 52.9737, 52.9737, 148655.479860519, 814.216997726979, 739.66651991678, 1153.17196978576, 549.812503478395, -48628.9263787901, 0, ]
  - [1300, -48629.7690575569, 1352.68927536194, -47277.0797821949, 897.269968866694, 52.9737, 52.9737, 52.9737, 148655.479860519, 682.861021312298, 892.940528644959, 723.944201301512, 431.698333990422, -48629.7690575569, 0, ]
  - [1400, -48652.5970207918, 1342.77381079026, -47309.8232100015, 890.692812715918, 52.9737, 52.9737, 52.9737, 148655.479860519, -1980.56406576676, -2336.73420467189, -1146.07515663671, -2458.88283599168, -48652.5970207918, 0, ]
  - [1500, -48645.793880707, 1339.34451135145, -47306.4493693555, 888.418079370472, 52.9737, 52.9737, 52.9737, 148655.479860519, -619.381370091077, -654.038921166346, -999.6143332834, -204.490855823486, -48645.793880707, 0, ]
  - [1600, -48656.0214760323, 1352.44067646989, -47303.5807995624, 897.105067492673, 52.9737, 52.9737, 52.9737, 148655.479860519, -1164.36776456788, -1063.30879647616, -1632.66456889452, -797.129928332937, -48656.0214760323, 0, ]
  - [1700, -48646.0130413399, 1350.23331486102, -47295.7797264789, 895.640873669197, 52.9737, 52.9737, 52.9737, 148655.479860519, -145.350670277631, -521.111009805843, -77.9224852113198, 162.98148418427, -48646.0130413399, 0, ]
  - [1800, -48654.8928236184, 1353.71092045205, -47301.1819031664, 897.947649598618, 52.9737, 52.9737, 52.9737, 148655.479860519, -1357.39663472135, -1733.44221262704, -1105.9483332895, -1232.79935824753, -48654.8928236184, 0, ]
  - [1900, -48650.8992305291, 1339.96054738732, -47310.9386831418, 888.826710269526, 52.9737, 52.9737, 52.9737, 148655.479860519, -1509.11898567891, -676.470098636857, -2249.83784956883, -1601.04900883104, -48650.8992305291, 0, ]
  - [2000, -48647.5767321875, 1354.3484205436, -47293.2283116439, 898.370518100439, 52.9737, 52.9737, 52.9737, 148655.479860519, -826.40479409533, -539.272851868481, -1094.04240805003, -845.899122367476, -48647.5767321875, 0, ]
  - [2100, -48650.9862113705, 1361.86850241059, -47289.1177089599, 903.358761701956, 52.9737, 52.9737, 52.9737, 148655.479860519, -1149.4604956896, -780.925431859218, -971.656071427191, -1695.7999837824, -48650.9862113705, 0, ]
  - [2200, -48653.2070239521, 1356.71863365824, -47296.4883902939, 899.942735080579, 52.9737, 52.9737, 52.9737, 148655.479860519, -1728.73711323561, -1860.0941295948, -1317.77084998622, -2008.34636012582, -48653.2070239521, 0, ]
  - [2300, -48639.3656006786, 1352.09067057956, -47287.2749300991, 896.872900519782, 52.9737, 52.9737, 52.9737, 148655.479860519, -394.100323979659, 619.319075452101, -1021.7089148313, -779.911132559773, -48639.3656006786, 0, ]
  - [2400, -48644.9032051505, 1346.48694407913, -47298.4162610714, 893.155819595019, 52.9737, 52.9737, 52.9737, 148655.479860519, -1019.92118202647, -940.132242617492, -947.951175174875, -1171.68012828704, -48644.9032051505, 0, ]
  - [2500, -48647.1620089729, 1379.03224370285, -47268.12976527, 914.743866836925, 52.9737, 52.9737, 52.9737, 148655.479860519, -811.368349239621, -1363.06403462299, -720.281556241867, -350.75945685401, -48647.1620089729, 0, ]
  - [2600, -48636.224774795, 1355.63610270694, -47280.588672088, 899.224667353819, 52.9737, 52.9737, 52.9737, 148655.479860519, 816.806442821451, 439.762971202195, 474.689404650753, 1535.96695261141, -48636.224774795, 0, ]
  - [2700, -48647.8559111693, 1348.0035620063, -47299.852349163, 894.161827216341, 52.9737, 52.9737, 52.9737, 148655.479860519, -1168.00096856844, -1512.17262064204, -965.80847561691, -1026.02180944638, -48647.8559111693, 0, ]
  - [2800, -48645.0475887794, 1349.8572979181, -47295.1902908613, 895.391452965703, 52.9737, 52.9737, 52.9737, 148655.479860519, -143.696029089333, 167.857383869516, -609.436612354575, 10.4911412170591, -48645.0475887794, 0, ]
  - [2900, -48636.2595331966, 1341.24515045147, -47295.0143827452, 889.678817085459, 52.9737, 52.9737, 52.9737, 148655.479860519, -223.598165560824, -663.98284280672, -256.07628970734, 249.264635831585, -48636.2595331966, 0, ]
  - [3000, -48630.3866879808, 1341.48882138738, -47288.8978665934, 889.840449632602, 52.9737, 52.9737, 52.9737, 148655.479860519, 896.105394366419, -66.8017844471748, 1658.35128347562, 1096.76668407081, -48630.3866879808, 0, ]
  - [3100, -48640.132962583, 1357.37551412454, -47282.7574484585, 900.378459031588, 52.9737, 52.9737, 52.9737, 148655.479860519, -85.9833142777326, -998.542443885502, -33.1030566221357, 773.695557674436, -48640.132962583, 0, ]
  - [3200, -48625.4506580998, 1358.07499810666, -47267.3756599932, 900.84244287643, 52.9737, 52.9737, 52.9737, 148655.479860519, 1070.36542843558, 108.304528604966, 1659.21150238649, 1443.5802543153, -48625.4506580998, 0, ]
  - [3300, -48654.3546357669, 1364.67586921737, -47289.6787665496, 905.220952800236, 52.9737, 52.9737, 52.9737, 148655.479860519, -1382.22145870483, -1433.14711336603, -1708.08566144478, -1005.43160130367, -48654.3546357669, 0, ]
  - [3400, -48639.6568770805, 1365.70844287738, -47273.9484342031, 905.905882704426, 52.9737, 52.9737, 52.9737, 148655.479860519, 57.3708232976213, 249.461944023984, 241.343117619085, -318.692591750202, -48639.6568770805, 0, ]
  - [3500, -48625.1609921872, 1361.98645220695, -47263.1745399803, 903.437000520015, 52.9737, 52.9737, 52.9737, 148655.479860519, 1268.01687286238, 893.754358099794, 1194.60165852104, 1715.69460196632, -48625.1609921872, 0, ]
  - [3600, -48631.733615625, 1367.26341829475, -47264.4701973303, 906.937333732937, 52.9737, 52.9737, 52.9737, 148655.479860519, 451.470606367174, 687.900493862854, 519.090684595176, 147.420640643499, -48631.733615625, 0, ]
  - [3700, -48634.0667843474, 1363.63280504496, -47270.4339793024, 904.529064297419, 52.9737, 52.9737, 52.9737, 148655.479860519, 408.549084122093, 124.215822582434, 167.711639812236, 933.719789971613, -48634.0667843474, 0, ]
  - [3800, -48634.8594040635, 1359.69423835369, -47275.1651657098, 901.916522247429, 52.9737, 52.9737, 52.9737, 148655.479860519, 653.507145666587, 677.202349917274, 782.940548443574, 500.378538638917, -48634.8594040635, 0, ]
  - [3900, -48650.1997313895, 1370.04680225801, -47280.1529291315, 908.783616458429, 52.9737, 52.9737, 52.9737, 148655.479860519, -1239.71779866128, -1019.05019529874, -1697.06114375922, -1003.04205692589, -48650.1997313895, 0, ]
  - [4000, -48632.4534310844, 1369.08373044128, -47263.3697006432, 908.144788728549, 52.9737, 52.9737, 52.9737, 148655.479860519, 651.464726345376, 817.829587943091, 332.264880494691, 804.299710598344, -48632.4534310844, 0, ]
  - [4100, -48636.7312030061, 1360.83728987569, -47275.8939131304, 902.674734663421, 52.9737, 52.9737, 52.9737, 148655.479860519, -144.935313227567, -555.904780560807, -241.504729279766, 362.603570157866, -48636.7312030061, 0, ]
  - [4200, -48638.0298891449, 1363.32659591208, -47274.7032932328, 904.325948723037, 52.9737, 52.9737, 52.9737, 148655.479860519, -205.304951517974, 113.341231521213, -63.0965396725438, -666.159546402588, -48638.0298891449, 0, ]
  - [4300, -48644.651101193, 1364.76904591845, -47279.8820552746, 905.282759053306, 52.9737, 52.9737, 52.9737, 148655.479860519, 78.689838317354, 18.7539163250556, 55.3836276916129, 161.931970935397, -48644.651101193, 0, ]
  - [4400, -48635.2979330426, 1349.58094927101, -47285.7169837716, 895.208144539674, 52.9737, 52.9737, 52.9737, 148655.479860519, 203.897434799481, -49.7793555862034, 486.645080181628, 174.826579803019, -48635.2979330426, 0, ]
  - [4500, -48648.3218193428, 1362.22085646217, -47286.1009628806, 903.592486264314, 52.9737, 52.9737, 52.9737, 148655.479860519, -1120.85760832825, -644.443619271871, -1011.38570406229, -1706.74350165058, -48648.3218193428, 0, ]
  - [4600, -48634.3451392239, 1343.69202850102, -47290.6531107229, 891.301887683658, 52.9737, 52.9737, 52.9737, 148655.479860519, 195.845816515488, -331.643084854041, 575.326948119355, 343.853586281152, -48634.3451392239, 0, ]
  - [4700, -48639.0369436296, 1353.47457638697, -47285.5623672426, 897.790877133739, 52.9737, 52.9737, 52.9737, 148655.479860519, 293.3383745588, 376.859729904929, 256.583564978767, 246.571828792704, -48639.0369436296, 0, ]
  - [4800, -48626.5225098588, 1360.20152383931, -47266.3209860195, 902.253016400359, 52.9737, 52.9737, 52.9737, 148655.479860519, 1038.16567407437, 1093.80099184791, 1225.02923769161, 795.666792683583, -48626.5225098588, 0, ]
  - [4900, -48634.6755487334, 1369.36294402194, -47265.3126047115, 908.329997531033, 52.9737, 52.9737, 52.9737, 148655.479860519, 314.386126850514, 369.190132741644, 254.458900274363, 319.509347535537, -48634.6755487334, 0, ]
  - [5000, -48640.812034782, 1374.13524668188, -47266.6767881001, 911.495575862366, 52.9737, 52.9737, 52.9737, 148655.479860519, 305.196559187482, 223.946409912716, -113.430346777012, 805.073614426743, -48640.812034782, 0, ]
  - [5100, -48643.5014299773, 1356.42708674904, -47287.0743432282, 899.749345297055, 52.9737, 52.9737, 52.9737, 148655.479860519, -349.508806870578, -1031.25259904802, -39.3085232302523, 22.0347016665364, -48643.5014299773, 0, ]
  - [5200, -48632.6606159992, 1367.32295283739, -47265.3376631619, 906.976824367034, 52.9737, 52.9737, 52.9737, 148655.479860519, 943.517900913024, 927.364752890734, 1036.5387449211, 866.650204927227, -48632.6606159992, 0, ]
  - [5300, -48647.9229839316, 1353.44920356173, -47294.4737803699, 897.774046754046, 52.9737, 52.9737, 52.9737, 148655.479860519, -1232.83055424013, -1628.19498068854, -780.240464348802, -1290.05621768305, -48647.9229839316, 0, ]
  - [5400, -48645.3742825647, 1347.67551316544, -47297.6987693992, 893.944224860367, 52.9737, 52.9737, 52.9737, 148655.479860519, -269.141771999677, -662.412241381009, 326.792174820113, -471.80524943813, -48645.3742825647, 0, ]
  - [5500, -48635.7653520386, 1362.13702001358, -47273.628332025, 903.53687561597, 52.9737, 52.9737, 52.9737, 148655.479860519, 554.203530782274, 1055.61910886143, 76.5738179406221, 530.417665544778, -48635.7653520386, 0, ]
  - [5600, -48630.5975963626, 1368.38584078111, -47262.2117555815, 907.681862434198, 52.9737, 52.9737, 52.9737, 148655.479860519, 1183.33402717341, 1040.48951889213, 1366.88000345558, 1142.63255917253, -48630.5975963626, 0, ]
  - [5700, -48647.5669866944, 1349.08060730361, -47298.4863793908, 894.876256182397, 52.9737, 52.9737, 52.9737, 148655.479860519, -1250.33341992299, -1015.54507653416, -1612.88616778584, -1122.56901544898, -48647.5669866944, 0, ]
  - [5800, -48641.5602503779, 1345.6980708657, -47295.8621795122, 892.632541813091, 52.9737, 52.9737, 52.9737, 148655.479860519, -386.43989144033, -46.2156126873846, -457.979625045481, -655.124436588121, -48641.5602503779, 0, ]
  - [5900, -48645.1345922001, 1359.80920164045, -47285.3253905597, 901.992780044847, 52.9737, 52.9737, 52.9737, 148655.479860519, -523.565178101367, -877.628067775641, -52.9519662650257, -640.115500263427, -48645.1345922001, 0, ]
  - [6000, -48640.6991282777, 1367.94691785305, -47272.7522104246, 907.390714741099, 52.9737, 52.9737, 52.9737, 148655.479860519, -244.585539637229, -421.843930108377, 79.4096775024894, -391.3223663058, -48640.6991282777, 0, ]
  - [6100, -48632.9453474344, 1369.38703996172, -47263.5583074726, 908.34598092318, 52.9737, 52.9737, 52.9737, 148655.479860519, 1142.4676577138, 765.414179319394, 1608.35459314741, 1053.63420067461, -48632.9453474344, 0, ]
  - [6200, -48652.8824692543, 1339.15034787707, -47313.7321213772, 888.289286263449, 52.9737, 52.9737, 52.9737, 148655.479860519, -1735.1395986814, -1813.48041988814, -2042.83602288152, -1349.10235327452, -48652.8824692543, 0, ]
  - [6300, -48652.673673676, 1367.51684020025, -47285.1568334758, 907.105434322927, 52.9737, 52.9737, 52.9737, 148655.479860519, -1300.40515205155, -1419.56732624372, -1651.27254519857, -830.375584712367, -48652.673673676, 0, ]
  - [6400, -48640.1613914377, 1346.79301140983, -47293.3683800279, 893.35884110875, 52.9737, 52.9737, 52.9737, 148655.479860519, -362.434982533709, 221.0354774512, -230.621840077558, -1077.71858497477, -48640.1613914377, 0, ]
  - [6500, -48617.6541781566, 1375.40624212299, -47242.2479360336, 912.338656428347, 52.9737, 52.9737, 52.9737, 148655.479860519, 1847.22387790968, 1942.27908592752, 1919.248558599, 1680.14398920251, -48617.6541781566, 0, ]
  - [6600, -48634.4366915588, 1391.70308858104, -47242.7336029777, 923.148730242331, 52.9737, 52.9737, 52.9737, 148655.479860519, 573.640157891413, 882.922683973545, 671.091737632091, 166.906052068604, -48634.4366915588, 0, ]
  - [6700, -48624.0685557685, 1380.87467738937, -47243.1938783791, 915.965995559803, 52.9737, 52.9737, 52.9737, 148655.479860519, 1049.11622218857, 1642.92151962984, 859.425123072319, 645.002023863551, -48624.0685557685, 0, ]
  - [6800, -48625.9183107922, 1353.15003052561, -47272.7682802666, 897.575598384791, 52.9737, 52.9737, 52.9737, 148655.479860519, 1360.88294758592, 1164.97863389818, 1392.77277035281, 1524.89743850676, -48625.9183107922, 0, ]
  - [6900, -48624.80017096, 1358.04611541158, -47266.7540555484, 900.823284319187, 52.9737, 52.9737, 52.9737, 148655.479860519, 1284.35388498005, 1070.45401605216, 706.613974834078, 2075.99366405391, -48624.80017096, 0, ]
  - [7000, -48637.3173589383, 1366.92670535324, -47270.390653585, 906.713984279337, 52.9737, 52.9737, 52.9737, 148655.479860519, 63.7430344230217, 585.949212850335, -834.712156836765, 439.992047255494, -48637.3173589383, 0, ]
  - [7100, -48641.1426704773, 1361.20359221335, -47279.939078264, 902.917711445376, 52.9737, 52.9737, 52.9737, 148655.479860519, -188.546337448626, 195.529582168688, -829.145542204366, 67.9769476898062, -48641.1426704773, 0, ]
  - [7200, -48643.0988516982, 1358.26215262637, -47284.8366990718, 900.966586782304, 52.9737, 52.9737, 52.9737, 148655.479860519, -355.913398112545, -1162.06593755183, -389.381912788645, 483.707656002836, -48643.0988516982, 0, ]
  - [7300, -48633.3712704397, 1353.28219119951, -47280.0890792401, 897.663263605411, 52.9737, 52.9737, 52.9737, 148655.479860519, 375.657346970327, 437.587672268256, 26.4746229218523, 662.909745720869, -48633.3712704397, 0, ]
  - [7400, -48627.5294962693, 1363.22883736721, -47264.3006589021, 904.261103227396, 52.9737, 52.9737, 52.9737, 148655.479860519, 1568.33056148707, 1751.05303340163, 1501.87209309849, 1452.06655796109, -48627.5294962693, 0, ]
  - [7500, -48625.708633924, 1346.54987749265, -47279.1587564313, 893.197564778499, 52.9737, 52.9737, 52.9737, 148655.479860519, 1779.34885459466, 2157.85230541692, 1538.88425486543, 1641.31000350163, -48625.708633924, 0, ]
  - [7600, -48648.9216124109, 1360.69812655906, -47288.2234858518, 902.582424428501, 52.9737, 52.9737, 52.9737, 148655.479860519, -573.907816184088, 12.8196960332709, -984.102564040953, -750.440580544586, -48648.9216124109, 0, ]
  - [7700, -48640.5622832692, 1353.00552930232, -47287.5567539668, 897.47974739337, 52.9737, 52.9737, 52.9737, 148655.479860519, -521.982222504258, -355.07016409098, -1265.99891780284, 55.1224143810382, -48640.5622832692, 0, ]
  - [7800, -48645.9850032847, 1370.4419594499, -47275.5430438348, 909.045733330148, 52.9737, 52.9737, 52.9737, 148655.479860519, -542.984921881908, -1225.08509604869, -658.76167367758, 254.892004080543, -48645.9850032847, 0, ]
  - [7900, -48647.4442839842, 1359.5765885741, -47287.8676954101, 901.838482437409, 52.9737, 52.9737, 52.9737, 148655.479860519, -472.11491969778, -172.193053766629, -891.489638777381, -352.662066549332, -48647.4442839842, 0, ]
  - [8000, -48637.0152147784, 1356.0836275805, -47280.9315871979, 899.521520915593, 52.9737, 52.9737, 52.9737, 148655.479860519, -26.647693162668, 763.415246375147, -791.111348971993, -52.2469768911541, -48637.0152147784, 0, ]
  - [8100, -48637.6720679017, 1349.8539940225, -47287.8180738791, 895.389261415615, 52.9737, 52.9737, 52.9737, 148655.479860519, 573.184740933288, 600.736478893349, 633.937483560854, 484.880260345662, -48637.6720679017, 0, ]
  - [8200, -48638.1679129077, 1349.03730696518, -47289.1306059425, 894.847534070065, 52.9737, 52.9737, 52.9737, 148655.479860519, -47.5813758671881, -266.873696147091, 161.201488144913, -37.0719195993826, -48638.1679129077, 0, ]
  - [8300, -48638.7121100728, 1361.68743388875, -47277.0246761841, 903.238654778726, 52.9737, 52.9737, 52.9737, 148655.479860519, -112.794718352319, -111.127104294689, 125.255350277269, -352.512401039541, -48638.7121100728, 0, ]
  - [8400, -48643.7731206024, 1368.6779458903, -47275.0951747121, 907.875622484638, 52.9737, 52.9737, 52.9737, 148655.479860519, -322.578055784295, -287.05786834306, -551.581124954943, -129.095174054881, -48643.7731206024, 0, ]
  - [8500, -48627.0631613089, 1367.57376750377, -47259.4893938051, 907.143195515232, 52.9737, 52.9737, 52.9737, 148655.479860519, 613.552190409848, 703.468502432532, 496.00582380587, 641.182244991148, -48627.0631613089, 0, ]
  - [8600, -48641.2882706871, 1350.20914235919, -47291.0791283279, 895.624839491683, 52.9737, 52.9737, 52.9737, 148655.479860519, -278.490920748153, 299.525065229606, -551.134374920642, -583.863452553422, -48641.2882706871, 0, ]
  - [8700, -48632.8139470769, 1367.77153752519, -47265.0424095517, 907.274380928022, 52.9737, 52.9737, 52.9737, 148655.479860519, 261.650653790889, -73.0112085184849, 468.927388531381, 389.035781359766, -48632.8139470769, 0, ]
  - [8800, -48628.5406435045, 1368.75655507872, -47259.7840884258, 907.927765770855, 52.9737, 52.9737, 52.9737, 148655.479860519, 1202.89632760978, 1094.28336828774, 1155.57534886738, 1358.83026567422, -48628.5406435045, 0, ]
  - [8900, -48626.811536108, 1375.35461279819, -47251.4569233098, 912.304409507423, 52.9737, 52.9737, 52.9737, 148655.479860519, 1265.01475011078, 864.733456046946, 1621.33373543445, 1308.97705885096, -48626.811536108, 0, ]
  - [9000, -48634.6300885746, 1363.09886329766, -47271.531225277, 904.174888431832, 52.9737, 52.9737, 52.9737, 148655.479860519, 177.483711017856, 260.54957355106, 785.098907283292, -513.197347780785, -48634.6300885746, 0, ]
  - [9100, -48642.7450576056, 1357.13110045276, -47285.6139571529, 900.216333810617, 52.9737, 52.9737, 52.9737, 148655.479860519, -577.962449284784, -484.537463058504, -200.905437207751, -1048.44444758809, -48642.7450576056, 0, ]
  - [9200, -48638.1557593095, 1368.87690137002, -47269.2788579394, 908.007594239235, 52.9737, 52.9737, 52.9737, 148655.479860519, 56.5663507431335, 500.288381818464, -432.642900031484, 102.053570442421, -48638.1557593095, 0, ]
  - [9300, -48623.3792138891, 1363.57968948258, -47259.7995244065, 904.493831520855, 52.9737, 52.9737, 52.9737, 148655.479860519, 1596.695565584, 1439.16710860077, 1517.07804234108, 1833.84154581016, -48623.3792138891, 0, ]
  - [9400, -48630.5332770052, 1353.28673449843, -47277.2465425068, 897.666277280283, 52.9737, 52.9737, 52.9737, 148655.479860519, -19.1343783879991, -30.9426651508729, 207.471473365648, -233.931943378767, -48630.5332770052, 0, ]
  - [9500, -48641.4522434811, 1351.07228201818, -47290.379961463, 896.19737991841, 52.9737, 52.9737, 52.9737, 148655.479860519, -469.333199981539, -751.839904402702, -814.479089609437, 158.319394067523, -48641.4522434811, 0, ]
  - [9600, -48643.3021935842, 1372.9585153432, -47270.343678241, 910.715022847824, 52.9737, 52.9737, 52.9737, 148655.479860519, -609.253318253098, -485.722313200861, -736.706541810665, -605.331099747761, -48643.3021935842, 0, ]
  - [9700, -48629.8112961728, 1345.88846549517, -47283.9228306776, 892.758834958433, 52.9737, 52.9737, 52.9737, 148655.479860519, 744.8527379628, 286.551518695791, 739.071621054069, 1208.93507413854, -48629.8112961728, 0, ]
  - [9800, -48634.9072298748, 1343.14067258224, -47291.7665572926, 890.936160596812, 52.9737, 52.9737, 52.9737, 148655.479860519, 572.647156448208, -35.1993308497578, 1548.93199826224, 204.208801932148, -48634.9072298748, 0, ]
  - [9900, -48632.202601356, 1367.743260936, -47264.45934042, 907.255624414781, 52.9737, 52.9737, 52.9737, 148655.479860519, 439.597766412965, -116.803298769541, 1113.7813320172, 321.815265991228, -48632.202601356, 0, ]
  - [10000, -48631.7476974851, 1371.34554563269, -47260.4021518524, 909.645102868201, 52.9737, 52.9737, 52.9737, 148655.479860519, 318.55830021902, -212.818006551346, 528.071902116565, 640.421005091842, -48631.7476974851, 0, ]
  - [10100, -48630.4792066296, 1360.48374532927, -47269.9954613003, 902.4402204184, 52.9737, 52.9737, 52.9737, 148655.479860519, 823.716926199111, 395.099624590157, 812.586825965241, 1263.46432804193, -48630.4792066296, 0, ]
  - [10200, -48637.1800679384, 1350.19808258215, -47286.9819853563, 895.617503286696, 52.9737, 52.9737, 52.9737, 148655.479860519, -567.18627921481, -117.510886333532, -1122.39023554009, -461.657715770805, -48637.1800679384, 0, ]
  - [10300, -48630.2029985324, 1356.6205200356, -47273.5824784968, 899.877654053667, 52.9737, 52.9737, 52.9737, 148655.479860519, 479.569752871996, 408.605513066666, 882.272620570194, 147.83112497913, -48630.2029985324, 0, ]
  - [10400, -48636.9360908329, 1368.05884367758, -47268.8772471553, 907.464957719828, 52.9737, 52.9737, 52.9737, 148655.479860519, -85.8298047465845, -471.784798121587, 117.104340478938, 97.1910434028953, -48636.9360908329, 0, ]
  - [10500, -48628.7979941826, 1367.47814744821, -47261.3198467344, 907.079768528828, 52.9737, 52.9737, 52.9737, 148655.479860519, 1207.09508020811, 1621.7575377279, 917.210521568398, 1082.31718132804, -48628.7979941826, 0, ]
  - [10600, -48632.5734418559, 1341.5303201832, -47291.0431216727, 889.867976740209, 52.9737, 52.9737, 52.9737, 148655.479860519, 524.851607139393, 902.158209221713, 41.06412108517, 631.332491111296, -48632.5734418559, 0, ]
  - [10700, -48652.742132543, 1361.11410929668, -47291.6280232463, 902.858355364623, 52.9737, 52.9737, 52.9737, 148655.479860519, -1306.43392904876, -1342.05560411763, -1486.00294024501, -1091.24324278364, -48652.742132543, 0, ]
  - [10800, -48639.6214921605, 1354.91992003672, -47284.7015721238, 898.749606884341, 52.9737, 52.9737, 52.9737, 148655.479860519, 320.548174901957, 819.565465413876, -251.806018301283, 393.885077593279, -48639.6214921605, 0, ]
  - [10900, -48638.1583709749, 1338.41411763961, -47299.7442533352, 887.800927780626, 52.9737, 52.9737, 52.9737, 148655.479860519, -729.922926995821, -964.654104538897, -605.774822714497, -619.33985373407, -48638.1583709749, 0, ]
  - [11000, -48629.7145298428, 1343.94462372925, -47285.7699061136, 891.46943991956, 52.9737, 52.9737, 52.9737, 148655.479860519, 803.963376146032, 358.257139462725, 1112.99867677921, 940.634312196164, -48629.7145298428, 0, ]
  - [11100, -48651.0660535378, 1359.65515359059, -47291.4108999472, 901.890596423364, 52.9737, 52.9737, 52.9737, 148655.479860519, -1403.24449448536, -2233.17462363965, -650.601941009007, -1325.95691880742, -48651.0660535378, 0, ]
  - [11200, -48627.9391644907, 1345.06567133698, -47282.8734931537, 892.213056632138, 52.9737, 52.9737, 52.9737, 148655.479860519, 1342.86199692852, 1131.67726298378, 1851.79733711637, 1045.1113906854, -48627.9391644907, 0, ]
  - [11300, -48636.2041539612, 1341.48093846568, -47294.7232154956, 889.835220708979, 52.9737, 52.9737, 52.9737, 148655.479860519, -281.922072152285, -317.355673094856, -612.496659607225, 84.0861162452255, -48636.2041539612, 0, ]
  - [11400, -48630.6204338174, 1368.44872527947, -47262.171708538, 907.723575171124, 52.9737, 52.9737, 52.9737, 148655.479860519, 1273.8503122019, 1369.01234366482, 1323.21352577597, 1129.3250671649, -48630.6204338174, 0, ]
  - [11500, -48644.5846017313, 1365.75113091672, -47278.8334708146, 905.934198664661, 52.9737, 52.9737, 52.9737, 148655.479860519, -542.495578845186, -264.975842875472, -709.513292074923, -652.997601585159, -48644.5846017313, 0, ]
  - [11600, -48626.7852325354, 1347.89420650967, -47278.8910260257, 894.089289195347, 52.9737, 52.9737, 52.9737, 148655.479860519, 1136.54034008432, 991.708916909421, 1534.94625270911, 882.965850634421, -48626.7852325354, 0, ]
  - [11700, -48631.193636602, 1364.88729010018, -47266.3063465018, 905.361193143966, 52.9737, 52.9737, 52.9737, 148655.479860519, 402.153552140381, 886.522515536012, 489.516967268118, -169.578826382987, -48631.193636602, 0, ]
  - [11800, -48635.0392079589, 1362.20013595269, -47272.8390720062, 903.578741872879, 52.9737, 52.9737, 52.9737, 148655.479860519, 677.536050165722, 818.044288775087, 1187.80742542059, 26.7564363014903, -48635.0392079589, 0, ]
  - [11900, -48638.2264793401, 1347.81260793055, -47290.4138714096, 894.035162977388, 52.9737, 52.9737, 52.9737, 148655.479860519, 636.676399598484, 1.19483295682458, 1169.86362194116, 738.970743897463, -48638.2264793401, 0, ]
  - [12000, -48641.7323711012, 1368.22352941961, -47273.5088416815, 907.574197567671, 52.9737, 52.9737, 52.9737, 148655.479860519, -659.958500207367, -1091.15360983457, -519.447422652424, -369.274468135099, -48641.7323711012, 0, ]
  - [12100, -48639.7952743051, 1359.47683721133, -47280.3184370938, 901.772315059726, 52.9737, 52.9737, 52.9737, 148655.479860519, -283.020619534576, -635.308789891806, -208.530212547657, -5.22285616426176, -48639.7952743051, 0, ]
  - [12200, -48629.0801645651, 1347.24008034272, -47281.8400842224, 893.655392234569, 52.9737, 52.9737, 52.9737, 148655.479860519, 715.218006801999, 901.00516581556, 755.99960852323, 488.649246067208, -48629.0801645651, 0, ]
  - [12300, -48625.9638750762, 1346.66316994201, -47279.3007051342, 893.272714270969, 52.9737, 52.9737, 52.9737, 148655.479860519, 991.945293845891, 522.962159183233, 1602.71135305917, 850.162369295264, -48625.9638750762, 0, ]
  - [12400, -48638.0779477763, 1351.25648790281, -47286.8214598735, 896.319567926679, 52.9737, 52.9737, 52.9737, 148655.479860519, -116.59054152765, -178.325596043093, -236.207295955464, 64.7612674156117, -48638.0779477763, 0, ]
  - [12500, -48647.2574935306, 1335.5602629271, -47311.6972306035, 885.907900183172, 52.9737, 52.9737, 52.9737, 148655.479860519, -585.900443421814, -353.863534625334, -512.995583752003, -890.842211888109, -48647.2574935306, 0, ]
  - [12600, -48651.4335324116, 1354.68515496299, -47296.7483774486, 898.593881800812, 52.9737, 52.9737, 52.9737, 148655.479860519, -1333.81964946891, -1774.84055011805, -1219.86277178069, -1006.75562650798, -48651.4335324116, 0, ]
  - [12700, -48644.9351780061, 1360.59905962392, -47284.3361183822, 902.516711047445, 52.9737, 52.9737, 52.9737, 148655.479860519, -800.846878229179, -419.779716942679, -325.977947428816, -1656.78297031604, -48644.9351780061, 0, ]
  - [12800, -48628.1757841887, 1344.35221053168, -47283.8235736571, 891.73980163839, 52.9737, 52.9737, 52.9737, 148655.479860519, 773.304435098852, 761.076557023397, 741.272198313726, 817.564549959431, -48628.1757841887, 0, ]
  - [12900, -48638.1456799719, 1352.83427345854, -47285.3114065134, 897.366149445626, 52.9737, 52.9737, 52.9737, 148655.479860519, 6.77403813616312, 118.681768255478, 261.996659975808, -360.356313822803, -48638.1456799719, 0, ]
  - [13000, -48649.1897218954, 1340.88510616426, -47308.3046157311, 889.439991412585, 52.9737, 52.9737, 52.9737, 148655.479860519, -1427.62013514404, -1578.11257417742, -959.613694477394, -1745.13413677731, -48649.1897218954, 0, ]
  - [13100, -48621.1872713496, 1334.44278437993, -47286.7444869697, 885.166650910709, 52.9737, 52.9737, 52.9737, 148655.479860519, 1896.53564296918, 1493.70434203398, 2420.40738987832, 1775.49519699525, -48621.1872713496, 0, ]
  - [13200, -48654.7318740125, 1353.44737256153, -47301.284501451, 897.772832209416, 52.9737, 52.9737, 52.9737, 148655.479860519, -1131.50022985504, -1533.47112254167, -525.332506934022, -1335.69706008944, -48654.7318740125, 0, ]
  - [13300, -48635.4707305558, 1347.07979568048, -47288.3909348753, 893.549071724371, 52.9737, 52.9737, 52.9737, 148655.479860519, 471.596734112984, 334.209446098812, 1031.85980722322, 48.720949016924, -48635.4707305558, 0, ]
  - [13400, -48638.6013867933, 1365.88324321062, -47272.7181435827, 906.021831793707, 52.9737, 52.9737, 52.9737, 148655.479860519, 125.363690076437, -197.869199383168, 286.547281773639, 287.412987838841, -48638.6013867933, 0, ]
  - [13500, -48626.0872231105, 1350.39005181274, -47275.6971712978, 895.744840901248, 52.9737, 52.9737, 52.9737, 148655.479860519, 1406.90606679447, 1009.66709606557, 1118.94484216896, 2092.1062621489, -48626.0872231105, 0, ]
  - [13600, -48641.8374934275, 1360.44764311357, -47281.3898503139, 902.41627298676, 52.9737, 52.9737, 52.9737, 148655.479860519, 223.241122577715, 630.942736445333, 41.5533422363657, -2.77271094855204, -48641.8374934275, 0, ]
  - [13700, -48634.1159228605, 1356.4921355568, -47277.6237873037, 899.79249367028, 52.9737, 52.9737, 52.9737, 148655.479860519, 491.73859955689, 1347.99082171321, -175.58665433022, 302.811631287683, -48634.1159228605, 0, ]
  - [13800, -48652.5807743326, 1344.00986999927, -47308.5709043333, 891.512719274056, 52.9737, 52.9737, 52.9737, 148655.479860519, -1672.29545670803, -1706.32109661727, -1615.50523212485, -1695.06004138198, -48652.5807743326, 0, ]
  - [13900, -48647.6670774734, 1348.24309478143, -47299.423982692, 894.320714826086, 52.9737, 52.9737, 52.9737, 148655.479860519, -1326.5318678107, -978.587982476396, -815.349887109624, -2185.65773384607, -48647.6670774734, 0, ]
  - [14000, -48632.9133120848, 1355.18372024136, -47277.7295918434, 898.924591639319, 52.9737, 52.9737, 52.9737, 148655.479860519, 808.579995719606, 1257.73903592443, 610.311798400017, 557.68915283438, -48632.9133120848, 0, ]
  - [14100, -48634.9853719048, 1342.07658451897, -47292.9087873858, 890.2303264627, 52.9737, 52.9737, 52.9737, 148655.479860519, 50.693071124775, -330.227015861077, 281.774146421327, 200.53208281407, -48634.9853719048, 0, ]
  - [14200, -48640.9186184369, 1341.98436262375, -47298.9342558131, 890.169153554363, 52.9737, 52.9737, 52.9737, 148655.479860519, -116.357543178791, 541.312563910456, -645.835039036805, -244.550154410027, -48640.9186184369, 0, ]
  - [14300, -48651.8365860905, 1358.77677903307, -47293.0598070574, 901.307950337353, 52.9737, 52.9737, 52.9737, 148655.479860519, -1270.93507100754, -1011.55929215829, -1749.99604099075, -1051.24987987358, -48651.8365860905, 0, ]
  - [14400, -48639.780768073, 1368.45450028375, -47271.3262677892, 907.727405864548, 52.9737, 52.9737, 52.9737, 148655.479860519, 25.7567155513978, 200.98540318616, 101.065707727187, -224.780964259155, -48639.780768073, 0, ]
  - [14500, -48635.1094733932, 1368.68962157978, -47266.4198518134, 907.88336723854, 52.9737, 52.9737, 52.9737, 148655.479860519, 540.568954653335, 319.670572155429, 1159.28022333101, 142.75606847356, -48635.1094733932, 0, ]
  - [14600, -48645.0355260408, 1361.44729317972, -47283.5882328611, 903.07936391242, 52.9737, 52.9737, 52.9737, 148655.479860519, -570.11512193587, -831.011068658776, -161.729834558166, -717.604462590669, -48645.0355260408, 0, ]
  - [14700, -48650.9878744091, 1376.71557667155, -47274.2722977375, 913.207168207827, 52.9737, 52.9737, 52.9737, 148655.479860519, -1072.06581372925, -1365.93372199058, -1506.87919391634, -343.384525280845, -48650.9878744091, 0, ]
  - [14800, -48646.9603489946, 1368.12076615459, -47278.83958284, 907.506032325824, 52.9737, 52.9737, 52.9737, 148655.479860519, -912.257591220043, -1084.11659611609, -995.272539936352, -657.383637607686, -48646.9603489946, 0, ]
  - [14900, -48641.1643360077, 1365.06075011764, -47276.1035858901, 905.476253170905, 52.9737, 52.9737, 52.9737, 148655.479860519, -183.702088726069, -393.048567970378, 370.132381496891, -528.190079704727, -48641.1643360077, 0, ]
  - [15000, -48642.3224734799, 1348.85253361186, -47293.4699398681, 894.724969646731, 52.9737, 52.9737, 52.9737, 148655.479860519, -229.9656764294, -265.610145835879, -257.862745550067, -166.424137902257, -48642.3224734799, 0, ]
  - [15100, -48648.6980733705, 1345.33264569532, -47303.3654276752, 892.390146876409, 52.9737, 52.9737, 52.9737, 148655.479860519, -816.95427634513, -770.153011596727, -480.517526515627, -1200.19229092304, -48648.6980733705, 0, ]
  - [15200, -48643.5870508806, 1337.70104768797, -47305.8860031926, 887.327932049119, 52.9737, 52.9737, 52.9737, 148655.479860519, -41.1380311118261, 88.973725936073, 751.372747616549, -963.760566888099, -48643.5870508806, 0, ]
  - [15300, -48640.5773915149, 1347.98090431413, -47292.5964872008, 894.146797846986, 52.9737, 52.9737, 52.9737, 148655.479860519, -212.659014966306, 145.831210791848, 16.3959600962571, -800.204215787021, -48640.5773915149, 0, ]
  - [15400, -48643.2436414602, 1352.9170251659, -47290.3266162943, 897.421040560121, 52.9737, 52.9737, 52.9737, 148655.479860519, -253.852849285736, -449.124233095613, 129.879701111622, -442.314015873217, -48643.2436414602, 0, ]
  - [15500, -48629.2291751586, 1362.96722055153, -47266.2619546071, 904.087566764639, 52.9737, 52.9737, 52.9737, 148655.479860519, 1305.9084030393, 1271.31711755056, 1376.08634247011, 1270.32174909725, -48629.2291751586, 0, ]
  - [15600, -48618.4137267664, 1343.5438792031, -47274.8698475633, 891.203616840271, 52.9737, 52.9737, 52.9737, 148655.479860519, 2382.21567677206, 2432.41774712151, 2860.26179907905, 1853.96748411562, -48618.4137267664, 0, ]
  - [15700, -48632.8891139213, 1354.17566210569, -47278.7134518156, 898.255923447378, 52.9737, 52.9737, 52.9737, 148655.479860519, 934.221076084017, 982.184686026164, 464.876848427707, 1355.60169379817, -48632.8891139213, 0, ]
  - [15800, -48647.9538070798, 1366.56472370153, -47281.3890833783, 906.473873507944, 52.9737, 52.9737, 52.9737, 148655.479860519, -850.399696805404, -563.127564520598, -844.038899800297, -1144.03262609532, -48647.9538070798, 0, ]
  - [15900, -48639.4231621119, 1348.81833087119, -47290.6048312407, 894.702282180649, 52.9737, 52.9737, 52.9737, 148655.479860519, -196.879655807178, 82.3633000202727, 155.936840535719, -828.939107977525, -48639.4231621119, 0, ]
  - [16000, -48646.2902762967, 1354.60650135028, -47291.6837749464, 898.541709046939, 52.9737, 52.9737, 52.9737, 148655.479860519, -962.309443619867, -1252.43287547999, -380.782412589459, -1253.71304279015, -48646.2902762967, 0, ]
  - [16100, -48635.9478976965, 1369.90201184492, -47266.0458858516, 908.687573640755, 52.9737, 52.9737, 52.9737, 148655.479860519, 138.858243431082, -42.8497650501449, 289.587621934741, 169.836873408652, -48635.9478976965, 0, ]
  - [16200, -48642.1839759084, 1360.6066616239, -47281.5773142845, 902.521753629216, 52.9737, 52.9737, 52.9737, 148655.479860519, -901.595353569291, -987.579905589542, -284.742843341537, -1432.46331177679, -48642.1839759084, 0, ]
  - [16300, -48639.483305263, 1357.54823949635, -47281.9350657667, 900.493031751141, 52.9737, 52.9737, 52.9737, 148655.479860519, -97.9318880661533, -453.381493335674, 618.394547903194, -458.808718765981, -48639.483305263, 0, ]
  - [16400, -48622.2270040648, 1353.78558068579, -47268.441423379, 897.997173452193, 52.9737, 52.9737, 52.9737, 148655.479860519, 1787.4687036561, 1872.16437232266, 2055.57478883432, 1434.66694981131, -48622.2270040648, 0, ]
  - [16500, -48638.5901157663, 1350.29184709594, -47288.2982686703, 895.679699449482, 52.9737, 52.9737, 52.9737, 148655.479860519, -20.8090253689874, -43.7199530804726, 153.170611228975, -171.877734255469, -48638.5901157663, 0, ]
  - [16600, -48631.6338940927, 1355.49290517261, -47276.1409889201, 899.129681129334, 52.9737, 52.9737, 52.9737, 148655.479860519, 227.942750530514, 570.4619889357, -21.5395359762723, 134.905798632113, -48631.6338940927, 0, ]
  - [16700, -48631.5140621907, 1349.40512622176, -47282.1089359689, 895.09151705929, 52.9737, 52.9737, 52.9737, 148655.479860519, 1012.12376281008, 1008.15097341139, 763.49249907356, 1264.72781594529, -48631.5140621907, 0, ]
  - [16800, -48633.5215422701, 1349.46353343, -47284.0580088401, 895.130259906501, 52.9737, 52.9737, 52.9737, 148655.479860519, 21.3308936669192, -401.064244409733, -200.997021553716, 666.053946964212, -48633.5215422701, 0, ]
  - [16900, -48645.9819419888, 1358.65591440791, -47287.3260275809, 901.227778046174, 52.9737, 52.9737, 52.9737, 148655.479860519, -329.469691613219, -952.17825729691, -317.046173413884, 280.815355871131, -48645.9819419888, 0, ]
  - [17000, -48636.6614994547, 1357.26003905657, -47279.4014603981, 900.301861757894, 52.9737, 52.9737, 52.9737, 148655.479860519, 460.049653058602, -230.567323570599, 1068.51948636391, 542.196796382502, -48636.6614994547, 0, ]
  - [17100, -48634.6044545709, 1367.4566697141, -47267.1477848568, 907.065521852844, 52.9737, 52.9737, 52.9737, 148655.479860519, -74.3007937663764, -16.3722294708898, 394.911398664446, -601.441550492687, -48634.6044545709, 0, ]
  - [17200, -48636.719352354, 1355.74135994882, -47280.9779924052, 899.294486908, 52.9737, 52.9737, 52.9737, 148655.479860519, 176.299115154763, -78.3179752150579, 782.201766282686, -174.98644560334, -48636.719352354, 0, ]
  - [17300, -48644.7915930446, 1356.37974599054, -47288.4118470541, 899.717943080976, 52.9737, 52.9737, 52.9737, 148655.479860519, -483.403357957665, -814.377751899532, -8.67989280734189, -627.15242916612, -48644.7915930446, 0, ]
  - [17400, -48648.5981562824, 1352.07436382135, -47296.5237924611, 896.862083871276, 52.9737, 52.9737, 52.9737, 148655.479860519, -1266.36423344808, -1688.90502648327, -741.143567745611, -1369.04410611536, -48648.5981562824, 0, ]
  - [17500, -48656.9427718873, 1345.77890957362, -47311.1638623136, 892.686163990969, 52.9737, 52.9737, 52.9737, 148655.479860519, -2135.00945064036, -1828.06939944087, -2287.82916600578, -2289.12978647443, -48656.9427718873, 0, ]
  - [17600, -48651.3934181275, 1347.89343098822, -47303.4999871392, 894.088774774101, 52.9737, 52.9737, 52.9737, 148655.479860519, -1226.43609119632, -1065.97454551633, -1059.03946211085, -1554.29426596178, -48651.3934181275, 0, ]
  - [17700, -48632.2905736687, 1355.67867870237, -47276.6118949663, 899.252908992746, 52.9737, 52.9737, 52.9737, 148655.479860519, 616.355797010886, 736.418539835975, 354.060243263947, 758.588607932738, -48632.2905736687, 0, ]
  - [17800, -48637.837143227, 1348.15269411345, -47289.6844491136, 894.260749979741, 52.9737, 52.9737, 52.9737, 148655.479860519, 356.948489553781, 36.4325909171725, 646.42904932926, 387.983828414906, -48637.837143227, 0, ]
  - [17900, -48645.9392076616, 1363.10982827585, -47282.8293793857, 904.182161754551, 52.9737, 52.9737, 52.9737, 148655.479860519, -1234.91251654562, -1339.61970476798, -991.789562671998, -1373.32828219688, -48645.9392076616, 0, ]
  - [18000, -48652.288903332, 1370.26294790003, -47282.0259554319, 908.926990843828, 52.9737, 52.9737, 52.9737, 148655.479860519, -1436.46422271247, -1497.35038075948, -1353.28056050668, -1458.76172687125, -48652.288903332, 0, ]
  - [18100, -48633.0743634849, 1352.27708949567, -47280.7972739892, 896.996556482838, 52.9737, 52.9737, 52.9737, 148655.479860519, 810.944611968182, 757.183307811183, 524.035842491797, 1151.61468560157, -48633.0743634849, 0, ]
  - [18200, -48625.835527224, 1342.72151164682, -47283.1140155772, 890.658121488854, 52.9737, 52.9737, 52.9737, 148655.479860519, 2104.16736412581, 2084.45074219792, 3064.54426724192, 1163.50708293759, -48625.835527224, 0, ]
  - [18300, -48657.5452524443, 1358.9519043523, -47298.593348092, 901.424114997336, 52.9737, 52.9737, 52.9737, 148655.479860519, -1532.46101553962, -1104.88549215162, -680.694057018957, -2811.80349744829, -48657.5452524443, 0, ]
  - [18400, -48647.5476211711, 1337.10535680056, -47310.4422643705, 886.932796555889, 52.9737, 52.9737, 52.9737, 148655.479860519, -736.045253409111, -598.144722095616, -864.878643854684, -745.112394277031, -48647.5476211711, 0, ]
  - [18500, -48645.6542544358, 1352.62453964551, -47293.0297147903, 897.22702817416, 52.9737, 52.9737, 52.9737, 148655.479860519, -547.27446189241, -69.8404609984109, -956.976014802548, -615.00690987627, -48645.6542544358, 0, ]
  - [18600, -48642.0599382235, 1339.7745061522, -47302.2854320713, 888.703304830977, 52.9737, 52.9737, 52.9737, 148655.479860519, -257.774659756889, 259.45721051133, -871.515114767472, -161.266075014525, -48642.0599382235, 0, ]
  - [18700, -48634.2213639014, 1359.48151058024, -47274.7398533212, 901.775415013021, 52.9737, 52.9737, 52.9737, 148655.479860519, 878.252306464224, 358.990305565391, 1281.88877946488, 993.877834362395, -48634.2213639014, 0, ]
  - [18800, -48637.5855505178, 1359.682880061, -47277.9026704568, 901.908988030141, 52.9737, 52.9737, 52.9737, 148655.479860519, -20.7811990455528, 28.8144134060313, 156.667064939858, -247.825075482545, -48637.5855505178, 0, ]
  - [18900, -48635.5737173151, 1370.38998433027, -47265.1837329849, 909.01125703554, 52.9737, 52.9737, 52.9737, 148655.479860519, 123.649566122191, 392.130358583689, -605.366242347412, 584.184582130298, -48635.5737173151, 0, ]
  - [19000, -48637.8328852985, 1363.34928233592, -47274.4836029626, 904.340997150778, 52.9737, 52.9737, 52.9737, 148655.479860519, 569.240484293321, 504.361213619696, 708.996621064513, 494.363618195755, -48637.8328852985, 0, ]
  - [19100, -48639.9987909553, 1361.53541929299, -47278.4633716623, 903.137819994202, 52.9737, 52.9737, 52.9737, 148655.479860519, 56.822897763165, -254.010272582628, 51.2039326581475, 373.275033213979, -48639.9987909553, 0, ]
  - [19200, -48650.6498013222, 1364.5774513336, -47286.0723499886, 905.155669949905, 52.9737, 52.9737, 52.9737, 148655.479860519, -1291.00147475698, -763.73586603294, -1437.88349101857, -1671.38506721944, -48650.6498013222, 0, ]
  - [19300, -48632.8303640011, 1361.12478488098, -47271.7055791202, 902.865436725711, 52.9737, 52.9737, 52.9737, 148655.479860519, -152.436205748907, 292.654587258529, -581.551599869031, -168.411604636221, -48632.8303640011, 0, ]
  - [19400, -48632.6378093325, 1345.04558798552, -47287.592221347, 892.199734882297, 52.9737, 52.9737, 52.9737, 148655.479860519, 495.396730521116, 452.133695941031, -386.106089392918, 1420.16258501523, -48632.6378093325, 0, ]
  - [19500, -48637.6798890501, 1360.18883514644, -47277.4910539037, 902.244599697967, 52.9737, 52.9737, 52.9737, 148655.479860519, -139.626314381269, -471.554193932883, 601.455404658618, -548.780153869538, -48637.6798890501, 0, ]
  - [19600, -48635.8036430118, 1350.06931173197, -47285.7343312799, 895.532086614267, 52.9737, 52.9737, 52.9737, 148655.479860519, 386.832702541155, 164.025984265713, 852.932165790138, 143.539957567614, -48635.8036430118, 0, ]
  - [19700, -48654.8903313466, 1375.15419898202, -47279.7361323646, 912.171470404646, 52.9737, 52.9737, 52.9737, 148655.479860519, -1186.9041930574, -987.499940292618, -1095.07616059397, -1478.13647828561, -48654.8903313466, 0, ]
  - [19800, -48626.2335326904, 1358.26017927713, -47267.9733534132, 900.965277814277, 52.9737, 52.9737, 52.9737, 148655.479860519, 980.756877937569, 494.474030226635, 1563.49482416461, 884.301779421465, -48626.2335326904, 0, ]
  - [19900, -48622.7871176931, 1354.45156077308, -47268.3355569201, 898.438933391503, 52.9737, 52.9737, 52.9737, 148655.479860519, 1366.34706620614, 868.634492703889, 1607.56804439104, 1622.83866152349, -48622.7871176931, 0, ]
  - [20000, -48635.2836429653, 1362.27129207588, -47273.0123508895, 903.625941369172, 52.9737, 52.9737, 52.9737, 148655.479860519, 317.444493636459, -185.108365463362, 358.435703021241, 779.006143351495, -50026.6037897698, 0, ]
...
Loop time of 17.7058 on 64 procs for 20000 steps with 11664 atoms

Performance: 97.595 ns/day, 0.246 hours/ns, 1129.572 timesteps/s, 13.175 Matom-step/s
75.7% CPU use with 64 MPI tasks x 1 OpenMP threads

MPI task timing breakdown:
Section |  min time  |  avg time  |  max time  |%varavg| %total
---------------------------------------------------------------
Pair    | 10.575     | 10.946     | 11.518     |   6.5 | 61.82
Neigh   | 0          | 0          | 0          |   0.0 |  0.00
Comm    | 3.8505     | 4.3036     | 4.6322     |   9.7 | 24.31
Output  | 0.028717   | 0.030219   | 0.10812    |   5.6 |  0.17
Modify  | 1.7961     | 1.9415     | 2.0881     |   4.1 | 10.97
Other   |            | 0.4849     |            |       |  2.74

Nlocal:         182.25 ave         189 max         180 min
Histogram: 48 0 0 0 0 0 0 0 0 16
Nghost:        1275.75 ave        1278 max        1269 min
Histogram: 16 0 0 0 0 0 0 0 0 48
Neighs:           5832 ave        6240 max        5628 min
Histogram: 16 32 0 0 0 0 0 0 0 16

Total # of neighbors = 373248
Ave neighs/atom = 32
Neighbor list builds = 0
Dangerous builds = 0
fix fpf all print 1 "${dE} ${lambda}" title "# dE [eV] lambda" screen no file data/forward_${T}K.dat
fix fpf all print 1 "${dE} ${lambda}" title "# dE [eV] lambda" screen no file data/forward_900K.dat
run ${t}
run 100000
Per MPI rank memory allocation (min/avg/max) = 3.736 | 3.736 | 3.736 Mbytes
---
keywords: ['Step', 'PotEng', 'KinEng', 'TotEng', 'Temp', 'Lx', 'Ly', 'Lz', 'Volume', 'Press', 'Pxx', 'Pyy', 'Pzz', 'v_dE', 'v_lambda', ]
data:
  - [20000, -48635.2836429653, 1362.27129207588, -47273.0123508895, 903.625941369172, 52.9737, 52.9737, 52.9737, 148655.479860519, 317.444493636468, -185.108365463342, 358.435703021237, 779.006143351503, -50026.6037897698, 0, ]
  - [20100, -48642.8396448108, 1358.24101720211, -47284.5986276087, 900.952567168328, 52.9737, 52.9737, 52.9737, 148655.479860519, -135.054364633616, -580.637027994413, -18.9912879415466, 194.465222035114, -50009.7193427595, 1.2558053968507e-13, ]
  - [20200, -48643.391229267, 1354.27930456485, -47289.1119247021, 898.324671878966, 52.9737, 52.9737, 52.9737, 148655.479860519, -295.682613269873, -946.048211567766, -204.530469685238, 263.530841443387, -50028.8481621917, 4.00518903939584e-12, ]
  - [20300, -48625.7277857948, 1338.41432298137, -47287.3134628134, 887.801063988551, 52.9737, 52.9737, 52.9737, 148655.479860519, 995.977232526199, 1630.1581743238, 253.541967933384, 1104.23155532142, -50046.9514768892, 3.03129989146628e-11, ]
  - [20400, -48642.3925761642, 1363.80862051682, -47278.5839556474, 904.645686751549, 52.9737, 52.9737, 52.9737, 148655.479860519, -290.381041932503, -261.307228151713, -195.506782949186, -414.329114696615, -50042.8421705655, 1.2731250673451e-10, ]
  - [20500, -48642.9508313791, 1353.73199198322, -47289.2188393958, 897.961626830834, 52.9737, 52.9737, 52.9737, 148655.479860519, -11.0169263421902, 314.884968641178, -157.862548474349, -190.073199193402, -50048.5354455558, 3.87229564589844e-10, ]
  - [20600, -48640.9606299091, 1345.81648888897, -47295.1441410201, 892.711091216849, 52.9737, 52.9737, 52.9737, 148655.479860519, -455.249815038949, -612.289029582181, -441.804577657699, -311.655837876963, -50058.4850103846, 9.60331117066399e-10, ]
  - [20700, -48648.477795121, 1376.97067872513, -47271.5071163959, 913.376383278751, 52.9737, 52.9737, 52.9737, 148655.479860519, -884.325199692401, -479.753825245418, -869.509213261283, -1303.7125605705, -50059.1207812053, 2.06871232013244e-09, ]
  - [20800, -48649.4931987055, 1350.0921235568, -47299.4010751487, 895.547218223374, 52.9737, 52.9737, 52.9737, 148655.479860519, -714.624972167425, -621.33921843792, -1248.92437560189, -273.611322462459, -50045.6051111846, 4.0197947066522e-09, ]
  - [20900, -48631.36984253, 1341.65473499096, -47289.715107539, 889.950503949312, 52.9737, 52.9737, 52.9737, 148655.479860519, 692.353862164008, 730.204868015997, 914.370347798422, 432.486370677605, -50024.6972189673, 7.21953805066232e-09, ]
  - [21000, -48630.6134169218, 1369.2480683408, -47261.365348581, 908.253797844442, 52.9737, 52.9737, 52.9737, 148655.479860519, 869.054701446305, 1438.57931097419, 521.586662421861, 646.99813094286, -50017.1391815839, 1.218536857e-08, ]
  - [21100, -48642.5108946262, 1358.01031489534, -47284.5005797309, 900.799537011743, 52.9737, 52.9737, 52.9737, 148655.479860519, 357.062025442218, 364.527416167936, 533.616449099074, 173.042211059642, -50021.2220467255, 1.95588260943488e-08, ]
  - [21200, -48631.5485918847, 1347.05909503248, -47284.4894968522, 893.535340507509, 52.9737, 52.9737, 52.9737, 148655.479860519, 967.804361980375, 1355.04006347979, 333.564665821997, 1214.80835663934, -50007.1535575859, 3.01179328132704e-08, ]
  - [21300, -48640.7544736621, 1367.66993386219, -47273.0845398, 907.206984876908, 52.9737, 52.9737, 52.9737, 148655.479860519, 358.431940309038, 80.8817510313073, 437.500246481328, 556.913823414475, -50019.468362068, 4.47892862063179e-08, ]
  - [21400, -48644.842843402, 1361.42376068562, -47283.4190827164, 903.063754266779, 52.9737, 52.9737, 52.9737, 148655.479860519, -283.704963023829, -345.37069192155, -175.54365428166, -330.200542868277, -50020.8659973342, 6.46598787448807e-08, ]
  - [21500, -48633.886511997, 1353.69283912756, -47280.1936728695, 897.935655839407, 52.9737, 52.9737, 52.9737, 148655.479860519, 368.287722750009, -46.7392138248565, 767.218384793829, 384.383997281057, -49997.2771584179, 9.09886469429883e-08, ]
  - [21600, -48637.4431879685, 1338.42496248409, -47299.0182254845, 887.808121415886, 52.9737, 52.9737, 52.9737, 148655.479860519, 45.6384232135552, -485.381922453532, 274.008824573589, 348.288367520611, -49987.621258879, 1.25217752321905e-07, ]
  - [21700, -48644.5943414707, 1361.10994762372, -47283.484393847, 902.855594831046, 52.9737, 52.9737, 52.9737, 148655.479860519, -256.448122650086, -83.7150697323931, -212.677915922994, -472.951382294872, -50022.7077914674, 1.68983596840977e-07, ]
  - [21800, -48638.0293038182, 1348.61463252414, -47289.4146712941, 894.567164372854, 52.9737, 52.9737, 52.9737, 148655.479860519, 438.982535202725, 540.229580533381, 643.692112511633, 133.025912563157, -50019.8410996074, 2.24127575334849e-07, ]
  - [21900, -48645.8269214059, 1352.64206952268, -47293.1848518832, 897.238656145658, 52.9737, 52.9737, 52.9737, 148655.479860519, -981.712727489554, -1157.47895893414, -776.917372615701, -1010.74185091882, -50022.0999570834, 2.92706567484841e-07, ]
  - [22000, -48634.3995044507, 1343.28096148315, -47291.1185429675, 891.029217457723, 52.9737, 52.9737, 52.9737, 148655.479860519, 328.371743147836, 591.460261696352, 121.879164573782, 271.775803173375, -50026.9005698086, 3.7700317184e-07, ]
  - [22100, -48641.993309785, 1371.91347970252, -47270.0798300825, 910.021826624675, 52.9737, 52.9737, 52.9737, 148655.479860519, -354.144010378356, -403.702664633689, 88.4972271469775, -747.226593648359, -50077.1808068273, 4.79535684391045e-07, ]
  - [22200, -48643.6455903467, 1352.58432145958, -47291.0612688871, 897.200350524614, 52.9737, 52.9737, 52.9737, 148655.479860519, -517.353565852621, -1245.17027180905, -302.060811751317, -4.8296139974941, -50090.9541778776, 6.03067824188202e-07, ]
  - [22300, -48639.4936417004, 1356.75403535821, -47282.7396063422, 899.966217843998, 52.9737, 52.9737, 52.9737, 148655.479860519, -611.734471695753, -1159.74565932451, 383.269503659898, -1058.72725942264, -50106.6339363617, 7.50618208481703e-07, ]
  - [22400, -48640.6285381603, 1347.00521657755, -47293.6233215828, 893.499601686737, 52.9737, 52.9737, 52.9737, 148655.479860519, -263.975925273639, -520.421498127665, -129.67773610307, -141.828541590186, -50054.8941750045, 9.25469579851522e-07, ]
  - [22500, -48632.0650548394, 1382.37456896032, -47249.6904858791, 916.960908203586, 52.9737, 52.9737, 52.9737, 148655.479860519, 998.80058754198, 542.169578798709, 1084.33699426395, 1369.89518956329, -50049.6232292542, 1.13117778778076e-06, ]
  - [22600, -48636.4926887489, 1381.33712671728, -47255.1555620316, 916.272748856075, 52.9737, 52.9737, 52.9737, 148655.479860519, -553.854992322369, -907.263114962897, -70.8282817922071, -683.473580212, -50057.6741202105, 1.37158052711496e-06, ]
  - [22700, -48613.8150591993, 1361.90709878607, -47251.9079604132, 903.384363567263, 52.9737, 52.9737, 52.9737, 148655.479860519, 3251.43688625446, 3146.68594525542, 3809.11765088753, 2798.50706262043, -50026.7578284196, 1.65080583583745e-06, ]
  - [22800, -48638.6150117611, 1352.38263545926, -47286.2323763018, 897.066567552774, 52.9737, 52.9737, 52.9737, 148655.479860519, -30.4411947352322, 287.113558511466, 311.566885758024, -690.004028475192, -50033.3549851958, 1.97328035457892e-06, ]
  - [22900, -48651.4662026089, 1347.8853233636, -47303.5808792453, 894.083396799849, 52.9737, 52.9737, 52.9737, 148655.479860519, -1109.5512089051, -684.093487178018, -1355.72892180577, -1288.8312177315, -50007.04171032, 2.343737350267e-06, ]
  - [23000, -48638.0020317839, 1343.85876276506, -47294.1432690188, 891.412486363362, 52.9737, 52.9737, 52.9737, 148655.479860519, -313.851025966625, -320.41451024086, -183.380826833759, -437.757740825254, -50048.4782387013, 2.76722450631e-06, ]
  - [23100, -48648.2487042904, 1344.85065204179, -47303.3980522486, 892.070429378555, 52.9737, 52.9737, 52.9737, 148655.479860519, -969.112269603532, -768.688401258012, -872.552203687151, -1266.09620386543, -50064.3711186689, 3.2491114816967e-06, ]
  - [23200, -48634.6935074161, 1354.52309897943, -47280.1704084367, 898.486386332361, 52.9737, 52.9737, 52.9737, 148655.479860519, 1091.73362065025, 1384.11502475037, 342.363920574175, 1548.7219166262, -50052.2951760587, 3.79509724138202e-06, ]
  - [23300, -48630.8845612198, 1354.17459146619, -47276.7099697536, 898.255213267523, 52.9737, 52.9737, 52.9737, 148655.479860519, 612.822700107958, 1088.75865136896, -135.612173696422, 885.32162265134, -50022.3951119406, 4.41121716031674e-06, ]
  - [23400, -48655.493301394, 1366.33767018467, -47289.1556312093, 906.323263677798, 52.9737, 52.9737, 52.9737, 148655.479860519, -1615.12381277098, -1648.44763916923, -2232.19467204836, -964.729127095344, -50051.2663360745, 5.10384990346721e-06, ]
  - [23500, -48648.2450296288, 1361.35375267799, -47286.8912769508, 903.017316341997, 52.9737, 52.9737, 52.9737, 148655.479860519, -726.608787431605, -919.488039956767, 9.96404713278178, -1270.30236947083, -50047.0296129857, 5.87972408415916e-06, ]
  - [23600, -48621.8810126099, 1340.56210685376, -47281.3189057562, 889.225738526456, 52.9737, 52.9737, 52.9737, 148655.479860519, 1325.46859834505, 2265.70287218645, 932.989331527997, 777.7135913207, -50015.2777677355, 6.74592470306796e-06, ]
  - [23700, -48639.7412161548, 1352.23272085518, -47287.5084952996, 896.967125741131, 52.9737, 52.9737, 52.9737, 148655.479860519, -447.859957242196, -226.124721782626, -72.5818354579803, -1044.87331448599, -49997.8542924238, 7.70989937016563e-06, ]
  - [23800, -48637.860963179, 1365.45390299899, -47272.40706018, 905.737040537258, 52.9737, 52.9737, 52.9737, 148655.479860519, 152.826399605131, -291.931481913889, 341.43470909827, 408.975971631015, -49973.5958301995, 8.77946431192315e-06, ]
  - [23900, -48633.5165140153, 1348.15382976798, -47285.3626842473, 894.261503285564, 52.9737, 52.9737, 52.9737, 148655.479860519, 93.9705023479065, -134.490414512829, 925.502636270242, -509.100714713701, -49986.5927277802, 9.96281016605489e-06, ]
  - [24000, -48657.2704553993, 1360.73250835488, -47296.5379470444, 902.605230665994, 52.9737, 52.9737, 52.9737, 148655.479860519, -1806.12396535088, -1741.10288703949, -1907.60278758554, -1769.66622142762, -49981.0569829931, 1.126850756608e-05, ]
  - [24100, -48645.3382678757, 1364.64062485552, -47280.6976430201, 905.197574402817, 52.9737, 52.9737, 52.9737, 148655.479860519, -465.980928804846, -350.506463082615, -638.623434417776, -408.812888914148, -49976.654449849, 1.2705512517964e-05, ]
  - [24200, -48632.8949348038, 1355.71981232914, -47277.1751224747, 899.280193875299, 52.9737, 52.9737, 52.9737, 148655.479860519, 1214.16860832953, 1399.71216355095, 1307.03334044272, 935.760320994923, -49973.9022847597, 1.42831715710919e-05, ]
  - [24300, -48643.0504327244, 1357.03826236926, -47286.0121703551, 900.154752170391, 52.9737, 52.9737, 52.9737, 148655.479860519, -432.243256606095, -10.6376538764039, -441.665545899659, -844.426570042216, -49965.959292849, 1.60112267858132e-05, ]
  - [24400, -48625.0742355739, 1373.43574020554, -47251.6384953683, 911.03157709659, 52.9737, 52.9737, 52.9737, 148655.479860519, 1478.92919441622, 1713.01074578245, 1465.04231842359, 1258.73451904261, -49974.2981032955, 1.78998204997854e-05, ]
  - [24500, -48634.309166347, 1365.41362427051, -47268.8955420764, 905.710322728435, 52.9737, 52.9737, 52.9737, 148655.479860519, 623.793652740882, 544.839629663162, 1201.16080081589, 125.380527743592, -49984.9930230432, 1.99594998953344e-05, ]
  - [24600, -48630.2001592941, 1361.58260316636, -47268.6175561277, 903.169118144752, 52.9737, 52.9737, 52.9737, 148655.479860519, 922.171306195516, 719.202297728051, 1232.89570444373, 814.415916414773, -50011.702743189, 2.2201221370035e-05, ]
  - [24700, -48634.8015977348, 1369.78560660754, -47265.0159911272, 908.610359364257, 52.9737, 52.9737, 52.9737, 148655.479860519, 284.570449413753, 437.990809868875, 848.638786104399, -432.91824773202, -50009.2890537249, 2.46363547127047e-05, ]
  - [24800, -48632.9982851732, 1350.46277799893, -47282.5355071743, 895.793081856513, 52.9737, 52.9737, 52.9737, 148655.479860519, 563.105637597686, 516.605277396534, 982.221528747697, 190.49010664883, -49982.5470500631, 2.7276687086994e-05, ]
  - [24900, -48642.7980973292, 1368.53826872218, -47274.259828607, 907.782971400186, 52.9737, 52.9737, 52.9737, 148655.479860519, 172.967929072282, 491.296137604887, 153.632919737282, -126.025270125324, -49953.2403256603, 3.01344268247409e-05, ]
  - [25000, -48625.2190420717, 1360.84491584267, -47264.3741262291, 902.679793143061, 52.9737, 52.9737, 52.9737, 148655.479860519, 1539.56962473348, 730.473307260109, 1523.8256791351, 2364.40988780522, -49972.9397664068, 3.322220703125e-05, ]
  - [25100, -48640.0540651155, 1375.03708845312, -47265.0169766624, 912.093788292038, 52.9737, 52.9737, 52.9737, 148655.479860519, -52.3245003917924, 216.985946573968, -270.291898015958, -103.66754973338, -49979.5671403373, 3.6553089004642e-05, ]
  - [25200, -48638.1177287275, 1362.40756955424, -47275.7101591733, 903.716337361059, 52.9737, 52.9737, 52.9737, 148655.479860519, 393.290813909062, 730.409753271181, 365.775320003569, 83.6873684524373, -49952.9911670307, 4.01405654714096e-05, ]
  - [25300, -48640.3786952361, 1346.49854521232, -47293.8801500238, 893.163514894011, 52.9737, 52.9737, 52.9737, 148655.479860519, -801.518876521573, -146.191947057139, -664.381566110547, -1593.98311639703, -49968.5006560725, 4.39985636403039e-05, ]
  - [25400, -48640.931804725, 1356.79564540667, -47284.1361593184, 899.993818748034, 52.9737, 52.9737, 52.9737, 148655.479860519, -265.871041491015, -95.1881536547424, -493.781875960517, -208.643094857784, -49981.5383157136, 4.81414480766634e-05, ]
  - [25500, -48643.3956714947, 1358.69896786914, -47284.6967036256, 901.256336399173, 52.9737, 52.9737, 52.9737, 148655.479860519, -324.189068338798, 536.927548230154, -688.798070307877, -820.696682938676, -49953.9244062893, 5.25840233992879e-05, ]
  - [25600, -48632.7517046747, 1352.12695074212, -47280.6247539326, 896.896965987678, 52.9737, 52.9737, 52.9737, 148655.479860519, 398.510378867819, 544.72936968457, 479.068354989338, 171.733411929546, -49917.8200400097, 5.7341536801945e-05, ]
  - [25700, -48639.7182854917, 1348.32006953759, -47291.3982159541, 894.371773955713, 52.9737, 52.9737, 52.9737, 148655.479860519, 55.6944178968816, -382.961260185231, 995.109013672517, -445.064499796644, -49938.680670641, 6.24296804015908e-05, ]
  - [25800, -48633.2715197943, 1343.40154095882, -47289.8699788355, 891.109200602677, 52.9737, 52.9737, 52.9737, 148655.479860519, 331.050932811716, 652.869056248598, 274.311992443341, 65.971749743202, -49990.4151796463, 6.78645934153687e-05, ]
  - [25900, -48642.7176888288, 1356.68019603712, -47286.0374927917, 899.917238520703, 52.9737, 52.9737, 52.9737, 148655.479860519, -158.738869117264, 5.21651647868737, -199.217661980516, -282.215461849961, -49984.5743166698, 7.36628641684442e-05, ]
  - [26000, -48634.8833130158, 1350.779412602, -47284.1039004138, 896.003112885528, 52.9737, 52.9737, 52.9737, 148655.479860519, 341.71304179831, 458.277102421402, 17.841373930938, 549.020649042588, -49956.5693455166, 7.98415319347201e-05, ]
  - [26100, -48632.3909729603, 1369.21050966767, -47263.1804632926, 908.228884311022, 52.9737, 52.9737, 52.9737, 148655.479860519, 155.527981897518, 119.084569807494, 7.91160540616238, 339.587770478901, -49945.4453923965, 8.64180886124637e-05, ]
  - [26200, -48658.406886479, 1359.94028352039, -47298.4666029586, 902.079729676573, 52.9737, 52.9737, 52.9737, 148655.479860519, -2009.80870374715, -1317.10759517872, -2671.82600163501, -2040.49251442772, -49953.1594452512, 9.34104802368714e-05, ]
  - [26300, -48651.6531384724, 1369.03170084105, -47282.6214376313, 908.110276295705, 52.9737, 52.9737, 52.9737, 148655.479860519, -921.4023204601, -638.06462156739, -699.992560777888, -1426.14977903502, -49946.9396349074, 0.000100837108331577, ]
  - [26400, -48634.9662349933, 1333.32253841343, -47301.6436965798, 884.423565945232, 52.9737, 52.9737, 52.9737, 148655.479860519, 196.657428353559, 328.885758013757, 225.643495848403, 35.4430311985147, -49924.6211255585, 0.000108716831101108, ]
  - [26500, -48644.359596837, 1349.40020372898, -47294.959393108, 895.088251856393, 52.9737, 52.9737, 52.9737, 148655.479860519, -886.217319353172, -1132.88444083592, -526.462233179915, -999.305284043686, -49939.1543088723, 0.000117068964466276, ]
  - [26600, -48643.6829943432, 1366.87784763027, -47276.8051467129, 906.681575825774, 52.9737, 52.9737, 52.9737, 148655.479860519, -530.079127356436, -765.064545716604, -373.273611643883, -451.899224708825, -49946.52872046, 0.000125913282944476, ]
  - [26700, -48628.7757824765, 1366.13785443018, -47262.6379280463, 906.190721283118, 52.9737, 52.9737, 52.9737, 148655.479860519, 691.681928073737, 387.031409714036, 152.015261648476, 1535.9991128587, -49920.3319214564, 0.000135270020376872, ]
  - [26800, -48633.9664100692, 1379.71631716823, -47254.2500929009, 915.197628530884, 52.9737, 52.9737, 52.9737, 148655.479860519, 388.09620166691, 831.939505520664, -169.21956840269, 501.568667882752, -49944.2486250505, 0.000145159870504403, ]
  - [26900, -48629.2754047632, 1366.91890913144, -47262.3564956318, 906.708812865755, 52.9737, 52.9737, 52.9737, 148655.479860519, 852.091713092954, 1105.53355819791, 3.1800580036999, 1447.56152307725, -49969.0295830251, 0.000155603987394582, ]
  - [27000, -48640.3135886129, 1366.83712071646, -47273.4764678965, 906.654560725295, 52.9737, 52.9737, 52.9737, 148655.479860519, -200.510461228106, -265.229768226351, -460.508490327876, 124.206874869904, -49986.9248036476, 0.00016662398572099, ]
  - [27100, -48637.4020810273, 1365.11741610473, -47272.2846649225, 905.513841026004, 52.9737, 52.9737, 52.9737, 148655.479860519, 8.67275748093675, 53.7167580771776, -45.2249772659934, 17.5264916316249, -49984.3600263491, 0.000178241940897419, ]
  - [27200, -48632.8132286025, 1360.41941370006, -47272.3938149024, 902.39754776623, 52.9737, 52.9737, 52.9737, 148655.479860519, 100.933374677711, -76.5515721433747, 175.722413468202, 203.629282708307, -50008.6958727047, 0.000190480389068545, ]
  - [27300, -48649.7416136608, 1356.3791609391, -47293.3624527217, 899.71755500288, 52.9737, 52.9737, 52.9737, 148655.479860519, -860.69127866992, -1234.50098652553, -586.822363898158, -760.750485586079, -49976.9453991545, 0.000203362326959055, ]
  - [27400, -48632.3272581531, 1352.24307764499, -47280.0841805081, 896.973995638479, 52.9737, 52.9737, 52.9737, 148655.479860519, 333.43390924965, 719.3373292077, 446.200582497928, -165.236183956677, -49958.5593710235, 0.000216911211583103, ]
  - [27500, -48643.0807335839, 1356.41402825427, -47286.6667053296, 899.740683296543, 52.9737, 52.9737, 52.9737, 148655.479860519, -355.083110464219, 291.92228529443, -831.550889609718, -525.620727077364, -49952.2821343002, 0.000231150959815979, ]
  - [27600, -48647.1223001123, 1351.78086698148, -47295.3414331309, 896.667400653803, 52.9737, 52.9737, 52.9737, 148655.479860519, -993.767624245524, -776.775953077015, -1115.25557862702, -1089.27134103254, -49941.1082212201, 0.00024610594782986, ]
  - [27700, -48628.395669659, 1353.53696136906, -47274.8587082899, 897.832258530013, 52.9737, 52.9737, 52.9737, 148655.479860519, 1484.16110996468, 2296.24521145471, 921.283694642069, 1234.95442379727, -49927.7088093251, 0.000261801010395495, ]
  - [27800, -48635.4253625028, 1356.54642412582, -47278.878938377, 899.828504529181, 52.9737, 52.9737, 52.9737, 148655.479860519, 925.974662740505, 936.651403749123, 351.787557468235, 1489.48502700416, -49947.5121358545, 0.000278261440051671, ]
  - [27900, -48641.2861403805, 1379.8695412607, -47261.4165991198, 915.299265602446, 52.9737, 52.9737, 52.9737, 148655.479860519, -32.9159544661428, 699.448149728339, -696.839372279664, -101.356640847104, -49946.6033474673, 0.000295512986144304, ]
  - [28000, -48648.3475113384, 1366.5395531758, -47281.8079581626, 906.457177318174, 52.9737, 52.9737, 52.9737, 148655.479860519, -1004.20856762334, -608.948984267804, -1281.9662790886, -1121.71043951361, -49968.5168880575, 0.00031358185373696, ]
  - [28100, -48625.9729570619, 1351.38124497425, -47274.5917120876, 896.402322167174, 52.9737, 52.9737, 52.9737, 148655.479860519, 1403.03264466842, 2051.41719173151, 601.797051813833, 1555.8836904599, -49973.0400794697, 0.000332494702394641, ]
  - [28200, -48635.0320410547, 1353.19598108431, -47281.8360599704, 897.606078449297, 52.9737, 52.9737, 52.9737, 148655.479860519, 961.548814147391, 1757.71195044047, 770.448637531849, 356.485854469848, -49971.3111663449, 0.000352278644842627, ]
  - [28300, -48638.2706115864, 1368.07107100924, -47270.1995405772, 907.473068390695, 52.9737, 52.9737, 52.9737, 148655.479860519, -261.183264350153, 392.20251922181, -180.848398179549, -994.903914092716, -49990.8075958698, 0.000372961245502164, ]
  - [28400, -48641.2406754933, 1361.17350328424, -47280.0671722091, 902.897752765297, 52.9737, 52.9737, 52.9737, 148655.479860519, -485.763813290392, -195.809659686514, -928.150118587725, -333.331661596944, -49993.2935957198, 0.000394570518904788, ]
  - [28500, -48641.0959489512, 1360.48111314785, -47280.6148358034, 902.438474431807, 52.9737, 52.9737, 52.9737, 148655.479860519, -280.240611567543, 6.69649722163442, -859.920703900387, 12.5023719761206, -49972.5088564177, 0.000417134927987054, ]
  - [28600, -48650.92139197, 1356.60957864839, -47294.3118133216, 899.87039637939, 52.9737, 52.9737, 52.9737, 148655.479860519, -964.164245350211, -1607.68573267385, -861.720700524783, -423.086302852, -49983.9212430676, 0.000440683382267422, ]
  - [28700, -48637.7875703195, 1342.18479075274, -47295.6027795668, 890.302102151157, 52.9737, 52.9737, 52.9737, 148655.479860519, 647.517568515424, 798.515102797172, 472.143122388337, 671.894480360767, -49979.4285763858, 0.000465245235907057, ]
  - [28800, -48627.3117751151, 1353.65677236942, -47273.6550027457, 897.911731927574, 52.9737, 52.9737, 52.9737, 148655.479860519, 1383.05414414956, 1133.13723105815, 1246.15987531431, 1769.86532607623, -49952.2419772716, 0.000490850285656287, ]
  - [28900, -48643.2019479007, 1332.80743837667, -47310.3945095241, 884.081888220449, 52.9737, 52.9737, 52.9737, 148655.479860519, -917.118484573993, -726.370807831357, -1361.72661220765, -663.25803368297, -49967.171194097, 0.000517528768688429, ]
  - [29000, -48635.7315011794, 1358.86900664723, -47276.8624945321, 901.369127039196, 52.9737, 52.9737, 52.9737, 148655.479860519, 221.577506373911, 229.107995311748, 50.672311910769, 384.952211899218, -49989.0385184361, 0.00054531136032273, ]
  - [29100, -48636.6749597744, 1355.9711693134, -47280.703790461, 899.446924755444, 52.9737, 52.9737, 52.9737, 148655.479860519, 305.769591606586, 695.860254252479, -214.291152747766, 435.73967331505, -49988.8300216285, 0.000574229171638096, ]
  - [29200, -48640.4801289815, 1353.69721458544, -47286.7829143961, 897.938558181444, 52.9737, 52.9737, 52.9737, 148655.479860519, 42.3662107336536, 309.689298973884, 90.9939763576863, -273.584643130611, -49984.9106571015, 0.000604313746979337, ]
  - [29300, -48643.3398258466, 1367.74328235948, -47275.5965434871, 907.255638625471, 52.9737, 52.9737, 52.9737, 148655.479860519, -21.0764166849186, 148.410651513432, 35.1326349104757, -246.772536478666, -50012.8619182771, 0.000635597061357593, ]
  - [29400, -48630.7173610249, 1353.47729544196, -47277.2400655829, 897.792680745574, 52.9737, 52.9737, 52.9737, 148655.479860519, 985.608411759783, 1238.24166143579, 609.890406171328, 1108.69316767223, -50014.6350581437, 0.000668111517746635, ]
  - [29500, -48629.3269858322, 1365.50482961758, -47263.8221562146, 905.770821336963, 52.9737, 52.9737, 52.9737, 148655.479860519, 939.808214029994, 1095.15610901696, 960.589014876656, 763.679518196369, -50026.5750486918, 0.000701889944276683, ]
  - [29600, -48638.7163818497, 1348.39493427192, -47290.3214475778, 894.421433459247, 52.9737, 52.9737, 52.9737, 148655.479860519, 308.578585344603, 656.756132487314, -49.7353221613828, 318.714945707876, -49995.2906770094, 0.000736965591327429, ]
  - [29700, -48644.029384706, 1360.99683118751, -47283.0325535185, 902.780562092161, 52.9737, 52.9737, 52.9737, 148655.479860519, -312.524417774626, -297.534527595311, -637.604814471599, -2.43391125696809, -49978.2651722043, 0.000773372128521878, ]
  - [29800, -48629.9625035644, 1360.61757458306, -47269.3449289813, 902.528992446518, 52.9737, 52.9737, 52.9737, 148655.479860519, 411.864636912087, 828.698252320416, -276.761432733145, 683.657091148989, -49973.3040770094, 0.00081114364162266, ]
  - [29900, -48640.9910222588, 1366.8277740275, -47274.1632482313, 906.648360851118, 52.9737, 52.9737, 52.9737, 148655.479860519, -6.07363688991268, 91.8075104239284, 30.3337402354463, -140.362161329116, -49962.1004569725, 0.000850314629332433, ]
  - [30000, -48639.1818110635, 1343.22182650965, -47295.9599845539, 890.989991867045, 52.9737, 52.9737, 52.9737, 148655.479860519, -525.603768563939, -721.222762665087, -410.170451521091, -445.418091505639, -49939.4605991246, 0.000890920000000001, ]
  - [30100, -48643.2204725814, 1364.70103424575, -47278.5194383357, 905.237645343483, 52.9737, 52.9737, 52.9737, 148655.479860519, -636.097176361848, -805.123995519902, -241.257375112917, -861.910158452724, -49944.3648981204, 0.000932995068233718, ]
  - [30200, -48641.4645190076, 1367.42930326959, -47274.035215738, 907.047369059542, 52.9737, 52.9737, 52.9737, 148655.479860519, -321.468172429817, -96.1528005870422, -369.941859017398, -498.309857685008, -49998.6674399688, 0.000976575551423828, ]
  - [30300, -48647.9314231755, 1356.90132637268, -47291.0300968028, 900.063919368193, 52.9737, 52.9737, 52.9737, 148655.479860519, -482.745779358484, -900.550689275498, -450.146740145937, -97.5399086540105, -49988.2237805352, 0.00102169756617526, ]
  - [30400, -48630.1500952402, 1348.49776617868, -47281.6523290615, 894.489644232746, 52.9737, 52.9737, 52.9737, 148655.479860519, 372.524298410443, 7.10294317652127, 658.730437954703, 451.739514100106, -50007.2883995997, 0.00106839762465251, ]
  - [30500, -48646.7038572056, 1354.55366365534, -47292.1501935503, 898.506660586254, 52.9737, 52.9737, 52.9737, 148655.479860519, -1295.49389226607, -1559.07708977735, -1091.64132035032, -1235.76326667053, -49985.44499626, 0.00111671263083812, ]
  - [30600, -48622.2788896272, 1352.3176678064, -47269.9612218208, 897.023473011461, 52.9737, 52.9737, 52.9737, 148655.479860519, 1275.08674941154, 805.245616639979, 1943.4182939911, 1076.59633760354, -49992.6617169382, 0.00116667987670637, ]
  - [30700, -48647.232507678, 1358.39610398477, -47288.8364036932, 901.055439805213, 52.9737, 52.9737, 52.9737, 148655.479860519, -912.876352538076, -1196.1274353572, -203.357653323752, -1339.14396893327, -50000.9030690114, 0.00121833703831365, ]
  - [30800, -48644.4090174907, 1365.8482647381, -47278.5607527526, 905.998629766813, 52.9737, 52.9737, 52.9737, 148655.479860519, -441.476963176853, -705.599202842998, 13.612976708291, -632.444663395852, -49974.4829147517, 0.00127172217180712, ]
  - [30900, -48644.9960344241, 1358.89169241371, -47286.1043420104, 901.38417503089, 52.9737, 52.9737, 52.9737, 148655.479860519, -266.468896946831, 220.620298729077, -893.591547634657, -126.435441934916, -49983.1714560247, 0.00132687370935312, ]
  - [31000, -48621.3309593373, 1357.95493650941, -47263.3760228279, 900.762803252174, 52.9737, 52.9737, 52.9737, 148655.479860519, 1773.78194494089, 1390.42826050455, 2065.20397587357, 1865.71359844456, -49979.2449292935, 0.00138383045498687, ]
  - [31100, -48639.4052668538, 1346.999390172, -47292.4058766818, 893.495736897667, 52.9737, 52.9737, 52.9737, 148655.479860519, 237.849640452223, 76.4388805488048, 444.282897634091, 192.827143173773, -49992.3728477723, 0.00144263158038501, ]
  - [31200, -48641.1195212272, 1369.53064391813, -47271.5888773091, 908.441236736797, 52.9737, 52.9737, 52.9737, 148655.479860519, 140.302382356946, 228.753638305318, 72.8288694307612, 119.324639334756, -49996.1968333387, 0.00150331662056234, ]
  - [31300, -48636.52078777, 1367.10066537046, -47269.4201223995, 906.82937596764, 52.9737, 52.9737, 52.9737, 148655.479860519, 183.283966462078, 346.587568780363, -61.1221444403609, 264.386475046233, -49997.3314049379, 0.00156592546949443, ]
  - [31400, -48642.9947199517, 1368.70817226816, -47274.2865476835, 907.89567233764, 52.9737, 52.9737, 52.9737, 148655.479860519, -537.943513932613, 204.072955801646, -990.82460873207, -827.078888867413, -49967.9961871038, 0.00163049837566735, ]
  - [31500, -48620.6508629916, 1348.70585392345, -47271.9450090681, 894.6276736292, 52.9737, 52.9737, 52.9737, 148655.479860519, 1755.42842390854, 1660.46851726993, 1825.43703835499, 1780.37971610071, -49946.0353085803, 0.00169707593755625, ]
  - [31600, -48641.4098001749, 1365.23374308844, -47276.1760570865, 905.591003395037, 52.9737, 52.9737, 52.9737, 148655.479860519, -738.488889062667, -354.35508485838, -860.697667693098, -1000.41391463652, -49931.2095858711, 0.00176569909903396, ]
  - [31700, -48640.6609712424, 1362.57945925826, -47278.0815119842, 903.830355762906, 52.9737, 52.9737, 52.9737, 148655.479860519, -211.071509311813, -61.0946504741418, -424.763525111514, -147.356352349781, -49935.5863751322, 0.0018364091447113, ]
[...]
  - [232600, -48621.305368655, 1346.93180953982, -47274.3735591152, 893.450909106956, 52.9737, 52.9737, 52.9737, 148655.479860519, 1933.3024849185, 2040.88959458638, 2370.7119306298, 1388.30592953932, -50047.8537215579, 0.000216911211583102, ]
  - [232700, -48636.8888475501, 1361.83116706222, -47275.0576804879, 903.333996304998, 52.9737, 52.9737, 52.9737, 148655.479860519, 355.507000281928, 380.445762191078, 452.313629755869, 233.761608898837, -50006.4019086833, 0.000203362326959055, ]
  - [232800, -48639.2600999006, 1332.75537153049, -47306.5047283701, 884.0473510815, 52.9737, 52.9737, 52.9737, 148655.479860519, -265.873077700355, -340.294319863102, 98.1223245195177, -555.447237757484, -49978.5738468605, 0.000190480389068545, ]
  - [232900, -48636.2123478095, 1347.28489011925, -47288.9274576902, 893.685115591976, 52.9737, 52.9737, 52.9737, 148655.479860519, 173.737092995003, -127.677205418864, -106.321309642618, 755.209794046493, -49970.5528433162, 0.000178241940897418, ]
  - [233000, -48632.3384110902, 1346.57607424458, -47285.7623368456, 893.214941687759, 52.9737, 52.9737, 52.9737, 148655.479860519, 688.316423200461, 551.026878195043, -448.960918712509, 1962.88331011884, -49978.0338016363, 0.000166623985720989, ]
  - [233100, -48646.5063345629, 1354.44194617759, -47292.0643883853, 898.432555808746, 52.9737, 52.9737, 52.9737, 148655.479860519, -1186.27123326019, -1661.37306076325, -879.293538346646, -1018.14710067067, -49983.0165463902, 0.000155603987394581, ]
  - [233200, -48644.9727134141, 1354.0529750802, -47290.9197383339, 898.174542316068, 52.9737, 52.9737, 52.9737, 148655.479860519, -633.208506502983, -271.117037228633, -1047.84202212249, -580.666460157821, -49986.2188660864, 0.000145159870504403, ]
  - [233300, -48646.9598698196, 1343.05949267167, -47303.9003771479, 890.882312091357, 52.9737, 52.9737, 52.9737, 148655.479860519, -1310.05554640775, -1012.42984709305, -1542.62225320917, -1375.11453892104, -50014.1959072484, 0.000135270020376871, ]
  - [233400, -48629.0693693352, 1357.43942544436, -47271.6299438908, 900.420852882847, 52.9737, 52.9737, 52.9737, 148655.479860519, 401.614433233784, 228.370790019978, 17.2362043629572, 959.236305318419, -49991.3614716534, 0.000125913282944476, ]
  - [233500, -48650.9566386514, 1394.99941439138, -47255.95722426, 925.335259115657, 52.9737, 52.9737, 52.9737, 148655.479860519, -604.284027514186, -477.645883770591, -1006.15128369284, -329.054915079127, -49953.3392847196, 0.000117068964466275, ]
  - [233600, -48635.2893345177, 1342.56871378648, -47292.7206207313, 890.556767146883, 52.9737, 52.9737, 52.9737, 148655.479860519, 252.027028526295, 280.104964539179, 86.0667290512824, 389.909391988424, -49995.8344829955, 0.000108716831101108, ]
  - [233700, -48639.1804744015, 1353.65641454832, -47285.5240598531, 897.911494576593, 52.9737, 52.9737, 52.9737, 148655.479860519, 408.30942515691, 252.352113090773, 502.809559377525, 469.766603002434, -50024.8193270969, 0.000100837108331576, ]
  - [233800, -48644.0446869749, 1321.74150790407, -47322.3031790709, 876.741601525286, 52.9737, 52.9737, 52.9737, 148655.479860519, -403.825205081463, -190.017340464305, -219.993039184761, -801.465235595324, -50064.2090898627, 9.34104802368709e-05, ]
  - [233900, -48646.3093680348, 1361.17099586071, -47285.1383721741, 902.896089533487, 52.9737, 52.9737, 52.9737, 148655.479860519, -848.907450527125, -1036.02693488816, -830.930804904632, -679.764611788579, -50080.1207352948, 8.64180886124633e-05, ]
  - [234000, -48627.290873581, 1364.63157752284, -47262.6592960582, 905.19157309856, 52.9737, 52.9737, 52.9737, 148655.479860519, 985.269688658572, 767.348934823561, 662.936281146586, 1525.52385000558, -50071.5592928742, 7.98415319347196e-05, ]
  - [234100, -48641.4163921625, 1377.21871793824, -47264.1976742242, 913.540913404834, 52.9737, 52.9737, 52.9737, 148655.479860519, -290.720077831931, -1023.5746664382, 51.3731950376074, 100.041237904796, -50063.0495486108, 7.36628641684439e-05, ]
  - [234200, -48645.3962949377, 1347.99719419419, -47297.3991007435, 894.157603299823, 52.9737, 52.9737, 52.9737, 148655.479860519, -696.181459076363, -439.526255008384, -1320.97364612801, -328.044476092685, -50063.5395040549, 6.78645934153684e-05, ]
  - [234300, -48637.4800376419, 1345.6644594051, -47291.8155782368, 892.610246556701, 52.9737, 52.9737, 52.9737, 148655.479860519, 414.94589590112, 564.55087760545, 479.338380102567, 200.948429995349, -50031.9968137625, 6.24296804015905e-05, ]
  - [234400, -48637.2913282341, 1357.3731843212, -47279.9181439129, 900.376913619339, 52.9737, 52.9737, 52.9737, 148655.479860519, -235.632000087115, -206.784416751406, -422.669357487246, -77.4422260226923, -50026.2881384542, 5.73415368019447e-05, ]
  - [234500, -48631.6400090773, 1360.96520314508, -47270.6748059323, 902.759582482747, 52.9737, 52.9737, 52.9737, 148655.479860519, 210.799122729823, 449.079320271968, -118.192384709704, 301.510432627209, -49987.7812218766, 5.25840233992875e-05, ]
  - [234600, -48627.2513443348, 1360.20128395355, -47267.0500603812, 902.252857278606, 52.9737, 52.9737, 52.9737, 148655.479860519, 1023.01100029275, 1391.22238262671, 126.629828281526, 1551.18078997001, -49972.498153271, 4.81414480766631e-05, ]
  - [234700, -48632.387202913, 1375.35408832672, -47257.0331145863, 912.304061613406, 52.9737, 52.9737, 52.9737, 148655.479860519, 339.756602177057, 652.304632080857, -101.469027783835, 468.434202234149, -49963.5641749308, 4.39985636403036e-05, ]
  - [234800, -48637.8084515383, 1351.78612457525, -47286.0223269631, 896.670888136907, 52.9737, 52.9737, 52.9737, 148655.479860519, 73.829178104858, -68.2193323173678, 419.096557929483, -129.389691297541, -49947.90857232, 4.01405654714093e-05, ]
  - [234900, -48648.5135887718, 1347.15486835082, -47301.358720421, 893.598869156644, 52.9737, 52.9737, 52.9737, 148655.479860519, -1474.28772204869, -1990.8627822698, -1093.94602119616, -1338.05436268011, -49966.5351169312, 3.65530890046418e-05, ]
  - [235000, -48649.7382169399, 1359.48469144731, -47290.2535254925, 901.777524955454, 52.9737, 52.9737, 52.9737, 148655.479860519, -1307.08477004111, -1230.64789104147, -1410.39386870775, -1280.21255037412, -49974.8930283839, 3.32222070312498e-05, ]
  - [235100, -48637.7885543369, 1344.51841843895, -47293.270135898, 891.850051173517, 52.9737, 52.9737, 52.9737, 148655.479860519, 235.023633507898, 337.22616422874, 494.344912854714, -126.500176559763, -49977.9649529294, 3.01344268247407e-05, ]
  - [235200, -48641.3850471424, 1357.99817528485, -47283.3868718576, 900.791484528353, 52.9737, 52.9737, 52.9737, 148655.479860519, -321.566453762526, -801.776145382569, 188.719473805813, -351.642689710819, -49968.943771571, 2.72766870869938e-05, ]
  - [235300, -48646.0705345383, 1360.71483634052, -47285.3556981978, 902.593508411622, 52.9737, 52.9737, 52.9737, 148655.479860519, -530.025951467793, 33.6581909768365, -1003.21168267681, -620.524362703408, -49972.4454718603, 2.46363547127045e-05, ]
  - [235400, -48632.1753810849, 1363.27308212973, -47268.9022989552, 904.290451797991, 52.9737, 52.9737, 52.9737, 148655.479860519, 393.445620288538, 444.248664445616, -37.2548273200311, 773.343023740025, -49976.2443306584, 2.22012213700348e-05, ]
  - [235500, -48652.9287848845, 1351.99397473018, -47300.9348101543, 896.808759934549, 52.9737, 52.9737, 52.9737, 148655.479860519, -1616.56073360796, -1107.20958549911, -1883.93992344226, -1858.53269188252, -49988.7618321293, 1.99594998953343e-05, ]
  - [235600, -48641.5877238763, 1355.08130282137, -47286.506421055, 898.856655804442, 52.9737, 52.9737, 52.9737, 148655.479860519, 217.215183788907, 576.330358212756, -94.7220637457103, 170.037256899676, -49957.8301932064, 1.78998204997852e-05, ]
  - [235700, -48659.8713320858, 1348.71081845863, -47311.1605136272, 894.630966719791, 52.9737, 52.9737, 52.9737, 148655.479860519, -1997.28275203815, -1730.25824532685, -1905.7605741491, -2355.82943663849, -49977.1880200369, 1.6011226785813e-05, ]
  - [235800, -48625.6122536477, 1349.08740871553, -47276.5248449322, 894.88076771566, 52.9737, 52.9737, 52.9737, 148655.479860519, 772.848319568507, 1111.84653566161, 1344.4280912691, -137.729668225186, -49984.7855747403, 1.42831715710918e-05, ]
  - [235900, -48645.6114880107, 1346.64528076018, -47298.9662072506, 893.260847964405, 52.9737, 52.9737, 52.9737, 148655.479860519, -859.824749310738, -697.131056398302, -789.083234802755, -1093.25995673116, -49998.2398279023, 1.27055125179639e-05, ]
  - [236000, -48648.8786788284, 1360.44642052361, -47288.4322583048, 902.41546201466, 52.9737, 52.9737, 52.9737, 148655.479860519, -915.572106144441, -694.223153593481, -1319.42386207508, -733.069302764767, -49969.6927447974, 1.12685075660799e-05, ]
  - [236100, -48630.6829159831, 1351.01347456568, -47279.6694414174, 896.158371579961, 52.9737, 52.9737, 52.9737, 148655.479860519, 425.815350258806, 664.06163035534, 499.2458064379, 114.138613983177, -50001.0863053079, 9.96281016605479e-06, ]
  - [236200, -48643.0170336654, 1363.01869385352, -47279.9983398119, 904.12171019204, 52.9737, 52.9737, 52.9737, 148655.479860519, -449.094855583945, -284.547731895792, -515.989846796326, -546.746988059718, -49996.4277165291, 8.77946431192305e-06, ]
  - [236300, -48623.2021444907, 1355.84239664008, -47267.3597478506, 899.361506873688, 52.9737, 52.9737, 52.9737, 148655.479860519, 1595.99352815878, 992.228247209283, 1753.31639413035, 2042.43594313673, -49999.9220224799, 7.70989937016554e-06, ]
  - [236400, -48646.7024980015, 1365.50362087002, -47281.1988771314, 905.770019546853, 52.9737, 52.9737, 52.9737, 148655.479860519, -547.031534611731, -816.251978730738, -190.2942639697, -634.548361134758, -49981.2344074981, 6.74592470306788e-06, ]
  - [236500, -48639.3136406008, 1354.82243166171, -47284.4912089391, 898.684940598596, 52.9737, 52.9737, 52.9737, 148655.479860519, -25.5654262757325, 313.67021700979, -530.561933813903, 140.19543797692, -49972.7614349143, 5.87972408415909e-06, ]
  - [236600, -48638.3839623322, 1357.15975169262, -47281.2242106395, 900.235338838284, 52.9737, 52.9737, 52.9737, 148655.479860519, 194.664464984791, 150.51310804647, 131.709636134925, 301.770650772981, -49982.4621369659, 5.10384990346715e-06, ]
  - [236700, -48636.9088264336, 1363.29840108858, -47273.610425345, 904.307246446865, 52.9737, 52.9737, 52.9737, 148655.479860519, 29.2545540757466, -65.2095217678259, 332.380652035449, -179.407468040381, -49978.7218381397, 4.41121716031669e-06, ]
  - [236800, -48621.1752925943, 1347.76016300951, -47273.4151295848, 894.000375052679, 52.9737, 52.9737, 52.9737, 148655.479860519, 1415.74115975998, 1914.9753775834, 710.886325499005, 1621.36177619756, -49972.3026131361, 3.79509724138197e-06, ]
  - [236900, -48627.4011208801, 1357.80586156872, -47269.5952593114, 900.663918408604, 52.9737, 52.9737, 52.9737, 148655.479860519, 1346.24514088944, 1519.73146417162, 1162.75021341648, 1356.25374508023, -49955.6323267673, 3.24911148169665e-06, ]
  - [237000, -48637.123625767, 1368.30998781349, -47268.8136379535, 907.631547412754, 52.9737, 52.9737, 52.9737, 148655.479860519, 439.039830565305, -154.237553621537, 1204.71614107592, 266.640904241535, -49981.7199415159, 2.76722450630996e-06, ]
  - [237100, -48641.5958248529, 1347.33515924572, -47294.2606656072, 893.718460262012, 52.9737, 52.9737, 52.9737, 148655.479860519, -91.4400694908025, 382.406517371151, 348.5616272849, -1005.28835312846, -49978.2221588913, 2.34373735026696e-06, ]
  - [237200, -48629.9303665315, 1334.19035332227, -47295.7400132092, 884.99920757293, 52.9737, 52.9737, 52.9737, 148655.479860519, 651.786887835448, 1088.34579564736, 371.623902798251, 495.390965060739, -50013.2539826518, 1.97328035457889e-06, ]
  - [237300, -48643.1464838628, 1343.55902719671, -47299.5874566661, 891.213664853512, 52.9737, 52.9737, 52.9737, 148655.479860519, -937.450375394003, -542.749841330884, -1120.91699351086, -1148.68429134027, -50008.7377614623, 1.65080583583743e-06, ]
  - [237400, -48645.1807190199, 1353.34408972494, -47291.8366292949, 897.704322323772, 52.9737, 52.9737, 52.9737, 148655.479860519, -814.84257482794, -428.734617613013, -949.719712034611, -1066.07339483619, -49968.8509026036, 1.37158052711493e-06, ]
  - [237500, -48638.0901687227, 1331.1691845121, -47306.9209842106, 882.995196678763, 52.9737, 52.9737, 52.9737, 148655.479860519, -72.6860760848005, 210.195778258981, -65.672652730216, -362.581353783165, -49982.9445794295, 1.13117778778074e-06, ]
  - [237600, -48641.4607398286, 1343.64363743412, -47297.8171023945, 891.269788773815, 52.9737, 52.9737, 52.9737, 148655.479860519, -564.330050069902, -568.841915363747, -814.505585012533, -309.642649833426, -49984.413251099, 9.25469579851505e-07, ]
  - [237700, -48643.4542649078, 1369.38984690753, -47274.0644180003, 908.347842835017, 52.9737, 52.9737, 52.9737, 148655.479860519, -451.936236013746, -692.799537189113, -427.479035206046, -235.53013564608, -49989.5400592524, 7.50618208481688e-07, ]
  - [237800, -48644.0862603006, 1361.24987980201, -47282.8363804986, 902.948415069619, 52.9737, 52.9737, 52.9737, 148655.479860519, -649.221983876835, -657.249762599527, -780.832867998162, -509.583321032809, -49991.9611380044, 6.03067824188189e-07, ]
  - [237900, -48638.9062358255, 1358.1320458801, -47280.7741899454, 900.880283979211, 52.9737, 52.9737, 52.9737, 148655.479860519, -608.099614619679, -678.308376401706, -510.934977643577, -635.055489813756, -49977.2025270447, 4.79535684391034e-07, ]
  - [238000, -48635.4970514501, 1356.07548858625, -47279.4215628638, 899.516122133145, 52.9737, 52.9737, 52.9737, 148655.479860519, 165.319493503137, -13.4276768578513, 191.580289449361, 317.805867917903, -49950.7679621099, 3.77003171839991e-07, ]
  - [238100, -48644.4621691594, 1350.80101983764, -47293.6611493218, 896.017445462861, 52.9737, 52.9737, 52.9737, 148655.479860519, -530.109556913472, -611.444837807841, -568.073441275345, -410.810391657229, -49986.6232219193, 2.92706567484834e-07, ]
  - [238200, -48636.5178423252, 1353.11863553201, -47283.3992067932, 897.554773362042, 52.9737, 52.9737, 52.9737, 148655.479860519, 186.001809447897, -86.5703442771577, 545.490634103775, 99.0851385170704, -49970.2266695167, 2.24127575334843e-07, ]
  - [238300, -48641.9199778363, 1354.79470323462, -47287.1252746017, 898.666547693905, 52.9737, 52.9737, 52.9737, 148655.479860519, -779.447365570229, -338.289404830773, -209.816846440096, -1790.23584543982, -50001.4614407565, 1.68983596840973e-07, ]
  - [238400, -48653.5665354322, 1358.95461480127, -47294.6119206309, 901.425912900599, 52.9737, 52.9737, 52.9737, 148655.479860519, -1511.82531717887, -1211.11078250025, -1503.03223848369, -1821.33293055267, -50018.7885079787, 1.25217752321901e-07, ]
  - [238500, -48638.0003002392, 1350.30205557454, -47287.6982446647, 895.68647096859, 52.9737, 52.9737, 52.9737, 148655.479860519, 117.082742889821, -15.3162002689639, 355.266612264383, 11.297816674052, -50018.8643123387, 9.09886469429854e-08, ]
  - [238600, -48645.7851724978, 1377.72587149706, -47268.0593010008, 913.877320047677, 52.9737, 52.9737, 52.9737, 148655.479860519, -320.847541118644, -210.129102039913, -627.416645595905, -124.996875720112, -50011.4853679578, 6.46598787448784e-08, ]
  - [238700, -48635.4587419559, 1344.6408343021, -47290.8179076538, 891.931252436598, 52.9737, 52.9737, 52.9737, 148655.479860519, 349.19999446139, 36.8061937210976, 859.622999595965, 151.170790067108, -50048.780963945, 4.47892862063161e-08, ]
  - [238800, -48631.765469134, 1359.98323634431, -47271.7822327897, 902.108221274523, 52.9737, 52.9737, 52.9737, 148655.479860519, 526.856111666636, 110.698895767325, 1191.93372149803, 277.935717734554, -50035.7992844628, 3.01179328132691e-08, ]
  - [238900, -48646.8000608993, 1359.87432727759, -47286.9257336217, 902.035979380776, 52.9737, 52.9737, 52.9737, 148655.479860519, -766.350763302686, -605.23886741576, -689.799053271139, -1004.01436922116, -50025.6140384673, 1.95588260943479e-08, ]
  - [239000, -48646.5932406311, 1343.15978029709, -47303.4334603341, 890.948835184408, 52.9737, 52.9737, 52.9737, 148655.479860519, -974.020367071881, -400.506116609932, -1529.90984000683, -991.645144598882, -50066.2887503108, 1.21853685699994e-08, ]
  - [239100, -48630.448946655, 1334.83897380765, -47295.6099728474, 885.429452488244, 52.9737, 52.9737, 52.9737, 148655.479860519, 849.306943780099, 779.949636932057, 397.661000713858, 1370.31019369439, -50076.1952123794, 7.21953805066191e-09, ]
  - [239200, -48634.4244348309, 1352.47804403031, -47281.9463908006, 897.129854256629, 52.9737, 52.9737, 52.9737, 148655.479860519, 768.381939301145, 539.679134760485, 1039.43678619957, 726.029896943385, -50023.1729243739, 4.01979470665194e-09, ]
  - [239300, -48638.9371200641, 1364.0011544584, -47274.9359656057, 904.773398951911, 52.9737, 52.9737, 52.9737, 148655.479860519, 530.062601817723, 614.463249989565, 683.911873776713, 291.812681686892, -49994.8099952824, 2.06871232013228e-09, ]
  - [239400, -48640.1969500543, 1340.71677320128, -47299.480176853, 889.328332279035, 52.9737, 52.9737, 52.9737, 148655.479860519, -163.521689338949, -232.30431600294, -162.004690586834, -96.2560614270727, -50021.0901686817, 9.60331117066315e-10, ]
  - [239500, -48647.1928587982, 1354.3548308082, -47292.83802799, 898.374770176667, 52.9737, 52.9737, 52.9737, 148655.479860519, -890.488035169788, -637.00788894968, -998.011605756741, -1036.44461080295, -49998.6188947841, 3.87229564589803e-10, ]
  - [239600, -48629.0529576089, 1355.14470010506, -47273.9082575038, 898.898708683693, 52.9737, 52.9737, 52.9737, 148655.479860519, 1112.89765685001, 1223.16037136155, 1119.25925895866, 996.273340229806, -49988.8476075718, 1.27312506734493e-10, ]
  - [239700, -48637.7907374925, 1365.73053584097, -47272.0602016515, 905.9205374763, 52.9737, 52.9737, 52.9737, 148655.479860519, 337.625531148145, 405.35518015685, 762.507237202184, -154.985823914602, -49991.3015156807, 3.03129989146573e-11, ]
  - [239800, -48637.3935997533, 1355.55980264056, -47281.8337971127, 899.174055761465, 52.9737, 52.9737, 52.9737, 148655.479860519, -229.561881796283, -403.608948289261, 135.721051979574, -420.797749079163, -50023.274314583, 4.00518903939475e-12, ]
  - [239900, -48629.9798116869, 1350.37442626892, -47279.605385418, 895.734476117947, 52.9737, 52.9737, 52.9737, 148655.479860519, 1207.1097989413, 577.896033604758, 1411.64984213486, 1631.78352108427, -49980.6729074911, 1.25580539685001e-13, ]
  - [240000, -48630.4558477793, 1355.88934156855, -47274.5665062107, 899.39264652658, 52.9737, 52.9737, 52.9737, 148655.479860519, 352.994800847498, -85.7859671187976, 467.60539460907, 677.164975052216, -49976.9583468995, 0, ]
...
Loop time of 129.406 on 64 procs for 100000 steps with 11664 atoms

Performance: 66.767 ns/day, 0.359 hours/ns, 772.764 timesteps/s, 9.014 Matom-step/s
70.3% CPU use with 64 MPI tasks x 1 OpenMP threads

MPI task timing breakdown:
Section |  min time  |  avg time  |  max time  |%varavg| %total
---------------------------------------------------------------
Pair    | 63.468     | 65.148     | 67.03      |  10.2 | 50.34
Neigh   | 0.13642    | 0.13937    | 0.15169    |   0.7 |  0.11
Comm    | 18.653     | 20.479     | 22.165     |  17.8 | 15.83
Output  | 0.33657    | 0.38325    | 0.38482    |   1.0 |  0.30
Modify  | 13.68      | 14.587     | 41.835     |  90.1 | 11.27
Other   |            | 28.67      |            |       | 22.15

Nlocal:         182.25 ave         195 max         172 min
Histogram: 3 6 10 11 10 4 10 6 1 3
Nghost:        1275.75 ave        1286 max        1263 min
Histogram: 3 1 6 10 4 10 11 10 6 3
Neighs:        7271.08 ave        7818 max        6740 min
Histogram: 2 2 11 10 10 8 8 8 3 2

Total # of neighbors = 465349
Ave neighs/atom = 39.896176
Neighbor list builds = 368
Dangerous builds = 0
#------------------------------------------------------------------------------#
Total wall time: 0:04:53
