LAMMPS (2 Aug 2023)
OMP_NUM_THREADS environment is not set. Defaulting to 1 thread. (src/comm.cpp:98)
  using 1 OpenMP thread(s) per MPI task
#--------------------------- Simulation variables -----------------------------#
# Initalizes the random number generator.
variable RND equal round(random(0,999,${RANDOM}))
variable RND equal round(random(0,999,1))

# Simulation control parameters.
variable t_eq equal 20000 # Equilibration time.
variable t equal 100000 # Switching time.

#---------------------------- Atomic setup ------------------------------------#
units            metal
# Create atoms.
lattice          bcc ${a}
lattice          bcc 2.894805555555555
Lattice spacing in x,y,z = 2.8948056 2.8948056 2.8948056
region           sim_box block 0 18 0 18 0 18
create_box       1 sim_box
Created orthogonal box = (0 0 0) to (52.1065 52.1065 52.1065)
  4 by 4 by 4 MPI processor grid
create_atoms     1 box
Created 11664 atoms
  using lattice units in orthogonal box = (0 0 0) to (52.1065 52.1065 52.1065)
  create_atoms CPU = 0.001 seconds

# Define interatomic potential.
pair_style       eam
pair_coeff       * * ../Fe.eam
#----------------------------- Run simulation ---------------------------------#
# Initial temperature to accelerate equilibration.
velocity all create ${T} ${RND} mom yes rot yes dist gaussian
velocity all create 200 ${RND} mom yes rot yes dist gaussian
velocity all create 200 80 mom yes rot yes dist gaussian

# Integrator, Frenkel-Ladd modifier, and thermostat.
fix fe all nve
fix fti all ti/spring ${k} ${t} ${t_eq} function 2
fix fti all ti/spring 5.454278806227736 ${t} ${t_eq} function 2
fix fti all ti/spring 5.454278806227736 100000 ${t_eq} function 2
fix fti all ti/spring 5.454278806227736 100000 20000 function 2
fix ft all langevin ${T} ${T} 0.1 ${RND} zero yes
fix ft all langevin 200 ${T} 0.1 ${RND} zero yes
fix ft all langevin 200 200 0.1 ${RND} zero yes
fix ft all langevin 200 200 0.1 178 zero yes
compute tcom all temp/com
fix_modify ft temp tcom

# Setup thermo output.
variable dE equal pe-f_fti
variable lambda equal f_fti[1]

thermo_style custom step pe ke etotal temp lx ly lz vol press pxx pyy pzz v_dE v_lambda
thermo 100
thermo_modify line yaml
thermo_modify flush yes

# Forward integration.
run ${t_eq}
run 20000

CITE-CITE-CITE-CITE-CITE-CITE-CITE-CITE-CITE-CITE-CITE-CITE-CITE

Your simulation uses code contributions which should be cited:

- ti/spring command: doi:10.1016/j.commatsci.2015.10.050

@article{freitas2016,
  author={Freitas, Rodrigo and Asta, Mark and de Koning, Maurice},
  title={Nonequilibrium Free-Energy Calculation of Solids Using {LAMMPS}},
  journal={Computational Materials Science},
  volume={112},
  pages={333--341},
  year={2016},
  publisher={Elsevier}
}

CITE-CITE-CITE-CITE-CITE-CITE-CITE-CITE-CITE-CITE-CITE-CITE-CITE

Neighbor list info ...
  update: every = 1 steps, delay = 0 steps, check = yes
  max neighbors/atom: 2000, page size: 100000
  master list distance cutoff = 6.409104
  ghost atom cutoff = 6.409104
  binsize = 3.204552, bins = 17 17 17
  1 neighbor lists, perpetual/occasional/extra = 1 0 0
  (1) pair eam, perpetual
      attributes: half, newton on
      pair build: half/bin/atomonly/newton
      stencil: half/bin/3d
      bin: standard
Per MPI rank memory allocation (min/avg/max) = 3.724 | 3.732 | 3.736 Mbytes
---
keywords: ['Step', 'PotEng', 'KinEng', 'TotEng', 'Temp', 'Lx', 'Ly', 'Lz', 'Volume', 'Press', 'Pxx', 'Pyy', 'Pzz', 'v_dE', 'v_lambda', ]
data:
  - [0, -50000.5520748272, 301.512214227, -49699.0398606002, 200, 52.1065, 52.1065, 52.1065, 141473.69859895, -38584.6858939278, -38559.6530798088, -38600.4700218663, -38593.9345801083, -50000.5520748272, 0, ]
  - [100, -49787.6131311601, 255.493528538659, -49532.1196026214, 169.474745289293, 52.1065, 52.1065, 52.1065, 141473.69859895, -5817.37052389331, -5792.19790765395, -5737.20477487965, -5922.70888914633, -49787.6131311601, 0, ]
  - [200, -49765.4276224842, 289.36848929532, -49476.0591331889, 191.944787402518, 52.1065, 52.1065, 52.1065, 141473.69859895, -1971.88540535744, -1887.92208541701, -2032.74107308674, -1994.99305756857, -49765.4276224842, 0, ]
  - [300, -49751.0019330972, 292.938132299642, -49458.0638007976, 194.312613869166, 52.1065, 52.1065, 52.1065, 141473.69859895, -112.567275345971, -81.2406883303001, -148.312798425411, -108.148339282201, -49751.0019330972, 0, ]
  - [400, -49750.6251803419, 300.057811631208, -49450.5673687107, 199.035261241724, 52.1065, 52.1065, 52.1065, 141473.69859895, 18.0485933236743, 2.54633647709812, 5.92520656270434, 45.6742369312202, -49750.6251803419, 0, ]
  - [500, -49750.6996739677, 299.496003854614, -49451.2036701131, 198.662601196734, 52.1065, 52.1065, 52.1065, 141473.69859895, 293.433569848677, 279.695853972509, 296.045307699823, 304.559547873697, -49750.6996739677, 0, ]
  - [600, -49750.7821739185, 299.644207741135, -49451.1379661773, 198.76090825, 52.1065, 52.1065, 52.1065, 141473.69859895, 166.607531093604, 103.11054857863, 152.029361444397, 244.682683257787, -49750.7821739185, 0, ]
  - [700, -49754.6130134911, 299.414323758105, -49455.198689733, 198.608420906415, 52.1065, 52.1065, 52.1065, 141473.69859895, -451.268850079949, -389.899749105435, -555.002125667892, -408.904675466521, -49754.6130134911, 0, ]
  - [800, -49750.0835734776, 299.567127399468, -49450.5164460781, 198.709779083067, 52.1065, 52.1065, 52.1065, 141473.69859895, 85.5696282393046, 63.2894943109321, 67.6551682559319, 125.764222151049, -49750.0835734776, 0, ]
  - [900, -49751.8363183633, 301.970762744859, -49449.8655556184, 200.304165799077, 52.1065, 52.1065, 52.1065, 141473.69859895, 184.041340229728, 278.338632685382, 98.245976036363, 175.539411967441, -49751.8363183633, 0, ]
  - [1000, -49753.2538948022, 301.582299491, -49451.6715953112, 200.046489170716, 52.1065, 52.1065, 52.1065, 141473.69859895, -164.532121672625, -250.460969670097, -121.521942498658, -121.613452849118, -49753.2538948022, 0, ]
  - [1100, -49750.5526444988, 300.362420909131, -49450.1902235897, 199.237315595445, 52.1065, 52.1065, 52.1065, 141473.69859895, 101.192383796632, 116.429456476015, 79.0782102095378, 108.069484704345, -49750.5526444988, 0, ]
  - [1200, -49752.2949835173, 303.893738916114, -49448.4012446011, 201.579720208165, 52.1065, 52.1065, 52.1065, 141473.69859895, -150.196177566739, -199.694473075871, -126.384046700279, -124.510012924066, -49752.2949835173, 0, ]
  - [1300, -49747.1803057963, 303.428308135724, -49443.7519976606, 201.27098924575, 52.1065, 52.1065, 52.1065, 141473.69859895, 676.082547590681, 726.931018161951, 614.593530917567, 686.723093692526, -49747.1803057963, 0, ]
  - [1400, -49750.9141176946, 300.876624810001, -49450.0374928846, 199.578398892643, 52.1065, 52.1065, 52.1065, 141473.69859895, 80.8233631673154, 113.774773901324, 52.1535636034652, 76.5417519971579, -49750.9141176946, 0, ]
  - [1500, -49750.7058113411, 300.801256984928, -49449.9045543562, 199.528405677432, 52.1065, 52.1065, 52.1065, 141473.69859895, 17.7712608960959, 54.3914120868481, -7.90142724464136, 6.82379784608136, -49750.7058113411, 0, ]
  - [1600, -49750.1271049055, 297.79938138332, -49452.3277235222, 197.537192413118, 52.1065, 52.1065, 52.1065, 141473.69859895, 112.528107281415, 26.9419670647205, 110.569964590016, 200.072390189509, -49750.1271049055, 0, ]
  - [1700, -49752.0826962891, 297.831373828666, -49454.2513224605, 197.558413739376, 52.1065, 52.1065, 52.1065, 141473.69859895, -89.3304902877221, 57.6669447742404, -243.470584516261, -82.1878311211462, -49752.0826962891, 0, ]
  - [1800, -49750.8846161013, 301.491592196435, -49449.3930239049, 199.986320931894, 52.1065, 52.1065, 52.1065, 141473.69859895, 139.555897947059, 338.564160129074, 17.317107350868, 62.7864263612363, -49750.8846161013, 0, ]
  - [1900, -49751.015815459, 305.151619169002, -49445.86419629, 202.414101167565, 52.1065, 52.1065, 52.1065, 141473.69859895, 138.879181619154, 134.020771382134, 98.6864386158236, 183.930334859504, -49751.015815459, 0, ]
  - [2000, -49753.8721509651, 303.645938705695, -49450.2262122594, 201.415348618076, 52.1065, 52.1065, 52.1065, 141473.69859895, -317.316063966224, -302.580889841278, -341.258845522318, -308.108456535073, -49753.8721509651, 0, ]
  - [2100, -49757.7384845726, 302.983966574624, -49454.754517998, 200.976247248488, 52.1065, 52.1065, 52.1065, 141473.69859895, -942.710283438878, -1022.68567609729, -1007.93113772934, -797.514036489996, -49757.7384845726, 0, ]
  - [2200, -49752.1383801256, 302.230730812245, -49449.9076493133, 200.476608609098, 52.1065, 52.1065, 52.1065, 141473.69859895, 63.1128682147638, 107.929366727135, 81.9133861530176, -0.504148235860585, -49752.1383801256, 0, ]
  - [2300, -49752.7528791676, 301.75864728108, -49450.9942318865, 200.163464723783, 52.1065, 52.1065, 52.1065, 141473.69859895, -178.847172980073, -222.269862666479, -267.408235575961, -46.8634206977774, -49752.7528791676, 0, ]
  - [2400, -49749.8090034054, 301.150620423861, -49448.6583829815, 199.760146497503, 52.1065, 52.1065, 52.1065, 141473.69859895, 219.68797326822, 304.828728647004, 132.380902249846, 221.854288907808, -49749.8090034054, 0, ]
  - [2500, -49748.8337433996, 301.427780234411, -49447.4059631652, 199.943992986947, 52.1065, 52.1065, 52.1065, 141473.69859895, 438.075124453984, 442.489033651579, 427.26883829971, 444.467501410663, -49748.8337433996, 0, ]
  - [2600, -49753.2698416416, 297.733827527797, -49455.5360141138, 197.49370903007, 52.1065, 52.1065, 52.1065, 141473.69859895, -173.979682287207, -187.285397808943, -147.128487598434, -187.525161454244, -49753.2698416416, 0, ]
  - [2700, -49749.8573708013, 299.849935744815, -49450.0074350565, 198.897372375811, 52.1065, 52.1065, 52.1065, 141473.69859895, 228.187866701685, 155.9815242631, 335.252696965668, 193.329378876288, -49749.8573708013, 0, ]
  - [2800, -49752.9084915721, 303.428437085897, -49449.4800544862, 201.271074781371, 52.1065, 52.1065, 52.1065, 141473.69859895, -136.919533125715, -233.129784594617, 62.5003736330419, -240.129188415569, -49752.9084915721, 0, ]
  - [2900, -49750.4449109958, 298.853653276034, -49451.5912577198, 198.236515255091, 52.1065, 52.1065, 52.1065, 141473.69859895, 214.920309044827, 90.8763647803608, 287.863570145876, 266.020992208245, -49750.4449109958, 0, ]
  - [3000, -49754.5608348578, 301.434088832822, -49453.1267460249, 199.948177625654, 52.1065, 52.1065, 52.1065, 141473.69859895, -274.479640010866, -381.722030018333, -115.285923945385, -326.430966068877, -49754.5608348578, 0, ]
  - [3100, -49752.6389477976, 304.509029253114, -49448.1299185444, 201.987856467969, 52.1065, 52.1065, 52.1065, 141473.69859895, -46.9255553010123, -126.158236826448, -0.111270094374301, -14.5071589822139, -49752.6389477976, 0, ]
  - [3200, -49751.485479422, 303.614137629945, -49447.871341792, 201.394254231679, 52.1065, 52.1065, 52.1065, 141473.69859895, 156.705604563826, 134.176143392634, 298.815721149955, 37.1249491488899, -49751.485479422, 0, ]
  - [3300, -49751.1188832298, 299.774017082061, -49451.3448661478, 198.847013777272, 52.1065, 52.1065, 52.1065, 141473.69859895, 104.647286729834, 38.6918074020873, 200.242255181144, 75.0077976062707, -49751.1188832298, 0, ]
  - [3400, -49752.1543998107, 301.60440923611, -49450.5499905746, 200.061155074163, 52.1065, 52.1065, 52.1065, 141473.69859895, -142.338137290355, -148.705474409863, -208.113369653605, -70.1955678075977, -49752.1543998107, 0, ]
  - [3500, -49751.3098251301, 302.368067990442, -49448.9417571397, 200.567707524311, 52.1065, 52.1065, 52.1065, 141473.69859895, -31.912485327894, 74.6019701801623, -137.437337887415, -32.9020882764324, -49751.3098251301, 0, ]
  - [3600, -49752.2607827918, 301.616573452409, -49450.6442093393, 200.069223879156, 52.1065, 52.1065, 52.1065, 141473.69859895, 107.122951693702, 80.9959588892878, 74.3481718768009, 166.024724315019, -49752.2607827918, 0, ]
  - [3700, -49750.371421697, 303.005548457491, -49447.3658732395, 200.990563008745, 52.1065, 52.1065, 52.1065, 141473.69859895, 141.978265351769, 79.1894988994798, 163.479599924628, 183.265697231199, -49750.371421697, 0, ]
  - [3800, -49751.896086324, 304.041594718752, -49447.8544916052, 201.677796369368, 52.1065, 52.1065, 52.1065, 141473.69859895, -113.053632535032, -155.724840847519, 33.7347500761152, -217.170806833693, -49751.896086324, 0, ]
  - [3900, -49748.7422613604, 300.329071054429, -49448.4131903059, 199.215193868279, 52.1065, 52.1065, 52.1065, 141473.69859895, 511.208241967573, 441.969162470172, 560.885686807206, 530.769876625343, -49748.7422613604, 0, ]
  - [4000, -49752.1069583556, 300.892468913589, -49451.214489442, 199.588908651678, 52.1065, 52.1065, 52.1065, 141473.69859895, -103.037930439383, -169.114724487091, 52.4001206354514, -192.399187466512, -49752.1069583556, 0, ]
  - [4100, -49749.7619905155, 300.101355214438, -49449.660635301, 199.064144703936, 52.1065, 52.1065, 52.1065, 141473.69859895, 275.84965268917, 380.811859316817, 231.60931540808, 215.127783342613, -49749.7619905155, 0, ]
  - [4200, -49753.7496762359, 303.239603167469, -49450.5100730684, 201.145816891629, 52.1065, 52.1065, 52.1065, 141473.69859895, -280.25166525439, -207.570701186685, -304.650983952678, -328.533310623806, -49753.7496762359, 0, ]
  - [4300, -49751.8145478594, 300.3562741179, -49451.4582737415, 199.23323828717, 52.1065, 52.1065, 52.1065, 141473.69859895, 23.9572540615928, 85.223829771224, 47.6716059965006, -61.0236735829451, -49751.8145478594, 0, ]
  - [4400, -49755.8710162486, 298.007088015205, -49457.8639282334, 197.674969008615, 52.1065, 52.1065, 52.1065, 141473.69859895, -623.887858346708, -639.781391382743, -508.099650785093, -723.782532872286, -49755.8710162486, 0, ]
  - [4500, -49751.35688225, 304.466843566391, -49446.8900386836, 201.959873729803, 52.1065, 52.1065, 52.1065, 141473.69859895, -42.6157866387043, -46.3225594333714, 77.300797952679, -158.825598435421, -49751.35688225, 0, ]
  - [4600, -49751.9727997322, 301.579473383918, -49450.3933263483, 200.044614548761, 52.1065, 52.1065, 52.1065, 141473.69859895, -74.0255807527866, -225.650195192507, 44.1757651179488, -40.6023121838016, -49751.9727997322, 0, ]
  - [4700, -49751.1626814186, 302.421139583294, -49448.7415418353, 200.602911134877, 52.1065, 52.1065, 52.1065, 141473.69859895, 140.604015893781, 189.899892711698, 124.129981463336, 107.782173506312, -49751.1626814186, 0, ]
  - [4800, -49751.8537683188, 303.172690662578, -49448.6810776562, 201.101432285147, 52.1065, 52.1065, 52.1065, 141473.69859895, -86.1466334667944, -105.100210878415, -72.3435991294178, -80.9960903925505, -49751.8537683188, 0, ]
  - [4900, -49753.4303606611, 298.569733684847, -49454.8606269762, 198.048184847372, 52.1065, 52.1065, 52.1065, 141473.69859895, -253.717894596944, -280.717073358941, -227.22785939248, -253.20875103941, -49753.4303606611, 0, ]
  - [5000, -49751.2492106192, 300.711769432826, -49450.5374411864, 199.469046521895, 52.1065, 52.1065, 52.1065, 141473.69859895, 33.6297963267852, 233.891815618465, -78.6899315856027, -54.3124950525085, -49751.2492106192, 0, ]
  - [5100, -49750.8989678452, 299.303052062209, -49451.595915783, 198.534611826287, 52.1065, 52.1065, 52.1065, 141473.69859895, 107.04321938852, 32.9137155912526, 70.5782468284781, 217.637695745832, -49750.8989678452, 0, ]
  - [5200, -49749.0255401033, 301.364607680047, -49447.6609324233, 199.902089175835, 52.1065, 52.1065, 52.1065, 141473.69859895, 412.793103047017, 472.257309275253, 284.662946438625, 481.459053427171, -49749.0255401033, 0, ]
  - [5300, -49749.1927071143, 304.412093746803, -49444.7806133675, 201.923556912769, 52.1065, 52.1065, 52.1065, 141473.69859895, 205.634607429774, 295.517143287577, 300.886928636825, 20.4997503649193, -49749.1927071143, 0, ]
  - [5400, -49750.3960690165, 306.67706786281, -49443.7190011537, 203.425966439902, 52.1065, 52.1065, 52.1065, 141473.69859895, 186.971726109026, 178.375684430247, 335.543364927013, 46.9961289698184, -49750.3960690165, 0, ]
  - [5500, -49751.9765635427, 301.628857920049, -49450.3477056226, 200.077372449635, 52.1065, 52.1065, 52.1065, 141473.69859895, -24.1617255048145, 17.7339010860063, 2.09463100818864, -92.3137086086388, -49751.9765635427, 0, ]
  - [5600, -49749.7198578009, 299.985915461331, -49449.7339423396, 198.987570855409, 52.1065, 52.1065, 52.1065, 141473.69859895, 123.765625521507, 255.786212976633, -66.9196132726197, 182.430276860508, -49749.7198578009, 0, ]
  - [5700, -49751.9219609135, 303.381695333316, -49448.5402655802, 201.240069899728, 52.1065, 52.1065, 52.1065, 141473.69859895, 86.3965153444071, 118.200580710858, 150.347540491327, -9.35857516896429, -49751.9219609135, 0, ]
  - [5800, -49746.1907309294, 300.65923602515, -49445.5314949043, 199.434199901959, 52.1065, 52.1065, 52.1065, 141473.69859895, 589.096475861206, 712.597686368404, 472.474520777633, 582.217220437584, -49746.1907309294, 0, ]
  - [5900, -49748.2471471532, 303.374695681017, -49444.8724514722, 201.235426869052, 52.1065, 52.1065, 52.1065, 141473.69859895, 528.458967576679, 517.07517365729, 487.063145375576, 581.238583697172, -49748.2471471532, 0, ]
  - [6000, -49755.080168442, 306.233729575403, -49448.8464388666, 203.131889937201, 52.1065, 52.1065, 52.1065, 141473.69859895, -540.680991852661, -549.039787959166, -608.357009715186, -464.646177883632, -49755.080168442, 0, ]
  - [6100, -49752.4453745834, 300.94546791456, -49451.4999066688, 199.624064110376, 52.1065, 52.1065, 52.1065, 141473.69859895, -143.241049111498, -243.531603744374, -122.100321644255, -64.0912219458634, -49752.4453745834, 0, ]
  - [6200, -49753.1409072778, 300.740690163303, -49452.4002171145, 199.488230308895, 52.1065, 52.1065, 52.1065, 141473.69859895, -274.16409920798, -313.777930708704, -327.660665296408, -181.053701618828, -49753.1409072778, 0, ]
  - [6300, -49752.4070418031, 298.147550724235, -49454.2594910789, 197.768141160456, 52.1065, 52.1065, 52.1065, 141473.69859895, -162.154840912943, -211.442638047492, -154.050812775455, -120.971071915883, -49752.4070418031, 0, ]
  - [6400, -49752.5510938736, 299.383067309253, -49453.1680265644, 198.58768778359, 52.1065, 52.1065, 52.1065, 141473.69859895, -211.665388153468, -178.539388083612, -188.369938355043, -268.086838021749, -49752.5510938736, 0, ]
  - [6500, -49753.1280978033, 305.058754996265, -49448.069342807, 202.352502221747, 52.1065, 52.1065, 52.1065, 141473.69859895, -403.812459813457, -292.800830000419, -472.197126891622, -446.43942254833, -49753.1280978033, 0, ]
  - [6600, -49749.3350761957, 301.689945125948, -49447.6451310698, 200.117893001054, 52.1065, 52.1065, 52.1065, 141473.69859895, 208.995449716868, 228.792225462177, 313.887352288698, 84.306771399729, -49749.3350761957, 0, ]
  - [6700, -49749.6415179778, 300.046409662665, -49449.5951083151, 199.027698053233, 52.1065, 52.1065, 52.1065, 141473.69859895, 165.17843628309, 169.558446544738, 233.140607522726, 92.836254781805, -49749.6415179778, 0, ]
  - [6800, -49752.12856573, 302.712027117231, -49449.4165386128, 200.795863539596, 52.1065, 52.1065, 52.1065, 141473.69859895, -201.146980374011, -232.734039916529, -129.266548139072, -241.440353066434, -49752.12856573, 0, ]
  - [6900, -49746.0236434585, 305.942070774501, -49440.081572684, 202.938425933329, 52.1065, 52.1065, 52.1065, 141473.69859895, 750.680862772171, 816.337302269728, 775.256633603333, 660.448652443452, -49746.0236434585, 0, ]
  - [7000, -49749.6665345834, 302.663351327914, -49447.0031832555, 200.763575766816, 52.1065, 52.1065, 52.1065, 141473.69859895, 250.439052047538, 253.537156284293, 169.931055433208, 327.848944425116, -49749.6665345834, 0, ]
  - [7100, -49749.8396212582, 304.064463823234, -49445.7751574349, 201.692965973387, 52.1065, 52.1065, 52.1065, 141473.69859895, 395.934039456096, 553.057116017351, 366.002637543194, 268.742364807742, -49749.8396212582, 0, ]
  - [7200, -49747.569082878, 302.738341783571, -49444.8307410945, 200.813318664197, 52.1065, 52.1065, 52.1065, 141473.69859895, 596.054764178682, 544.617181113091, 619.795178361035, 623.751933061918, -49747.569082878, 0, ]
  - [7300, -49751.2520946178, 303.638154816774, -49447.6139398011, 201.410185385175, 52.1065, 52.1065, 52.1065, 141473.69859895, -13.6400978100587, -46.6675867909101, 32.2089761561176, -26.4616827953854, -49751.2520946178, 0, ]
  - [7400, -49751.0311524974, 301.822628210548, -49449.2085242869, 200.20590474873, 52.1065, 52.1065, 52.1065, 141473.69859895, -159.281587152635, -187.337011211079, -164.657218888095, -125.85053135873, -49751.0311524974, 0, ]
  - [7500, -49750.0196831411, 300.983910044243, -49449.0357730969, 199.649563660888, 52.1065, 52.1065, 52.1065, 141473.69859895, 84.0515860906908, 249.857728254782, 0.115315265380012, 2.18171475191048, -49750.0196831411, 0, ]
  - [7600, -49751.1131279944, 302.655530063068, -49448.4575979313, 200.758387741604, 52.1065, 52.1065, 52.1065, 141473.69859895, 147.296958410858, 229.918302564522, 44.3719199052921, 167.60065276276, -49751.1131279944, 0, ]
  - [7700, -49753.0642846304, 296.527297645657, -49456.5369869848, 196.693389954949, 52.1065, 52.1065, 52.1065, 141473.69859895, -171.466220432934, -149.182350723238, -189.227397619642, -175.98891295592, -49753.0642846304, 0, ]
  - [7800, -49752.2472627657, 305.392312022526, -49446.8549507432, 202.573758284038, 52.1065, 52.1065, 52.1065, 141473.69859895, -111.402486568667, -70.0620399030182, -2.98123115091574, -261.164188652068, -49752.2472627657, 0, ]
  - [7900, -49748.4666735175, 302.947699322082, -49445.5189741954, 200.952190344104, 52.1065, 52.1065, 52.1065, 141473.69859895, 410.079175819166, 405.792790118749, 460.133493276386, 364.311244062364, -49748.4666735175, 0, ]
  - [8000, -49747.4644290356, 304.166201535306, -49443.2982275003, 201.760450942334, 52.1065, 52.1065, 52.1065, 141473.69859895, 592.651725630257, 687.402644427293, 689.187408476759, 401.365123986717, -49747.4644290356, 0, ]
  - [8100, -49746.6526121374, 304.614415110498, -49442.0381970269, 202.057761335773, 52.1065, 52.1065, 52.1065, 141473.69859895, 626.215327465894, 667.943788665644, 689.516541989757, 521.185651742281, -49746.6526121374, 0, ]
  - [8200, -49746.8281919488, 302.639927710459, -49444.1882642383, 200.748038341564, 52.1065, 52.1065, 52.1065, 141473.69859895, 649.210794771582, 705.051926686148, 689.43521315118, 553.145244477418, -49746.8281919488, 0, ]
  - [8300, -49753.7932517678, 301.381934563432, -49452.4113172044, 199.91358249688, 52.1065, 52.1065, 52.1065, 141473.69859895, -372.691190457785, -466.21433353309, -300.625349744802, -351.233888095462, -49753.7932517678, 0, ]
  - [8400, -49755.3215829951, 300.754052726321, -49454.5675302688, 199.497094004883, 52.1065, 52.1065, 52.1065, 141473.69859895, -526.320624501247, -510.844975343743, -539.345075202517, -528.771822957483, -49755.3215829951, 0, ]
  - [8500, -49751.7997184493, 300.890790752773, -49450.9089276965, 199.587795488936, 52.1065, 52.1065, 52.1065, 141473.69859895, -69.3197674701928, -46.0295435915941, -53.7799271583564, -108.149831660628, -49751.7997184493, 0, ]
  - [8600, -49751.9862609672, 302.117777342749, -49449.8684836245, 200.401683969787, 52.1065, 52.1065, 52.1065, 141473.69859895, -119.398633094516, -301.485101555285, 24.0704530532903, -80.7812507815511, -49751.9862609672, 0, ]
  - [8700, -49751.0760089866, 300.028149422566, -49451.047859564, 199.015585615171, 52.1065, 52.1065, 52.1065, 141473.69859895, 47.0049243171381, -29.7504997145295, 138.080646528964, 32.6846261369813, -49751.0760089866, 0, ]
  - [8800, -49748.7560806031, 303.349804669829, -49445.4062759333, 201.218916087721, 52.1065, 52.1065, 52.1065, 141473.69859895, 476.082438558235, 448.227340899943, 468.132360437489, 511.887614337275, -49748.7560806031, 0, ]
  - [8900, -49751.406510073, 302.393817123482, -49449.0126929495, 200.584787517642, 52.1065, 52.1065, 52.1065, 141473.69859895, 67.5067163122538, -11.488246448569, 139.226632324199, 74.7817630611303, -49751.406510073, 0, ]
  - [9000, -49751.0070344121, 301.752389619663, -49449.2546447925, 200.159313872759, 52.1065, 52.1065, 52.1065, 141473.69859895, 229.022423005619, 373.123135044731, 11.8229305495421, 302.121203422584, -49751.0070344121, 0, ]
  - [9100, -49751.219767233, 303.468396084573, -49447.7513711485, 201.297580506042, 52.1065, 52.1065, 52.1065, 141473.69859895, 9.58356640205088, -57.4896817245889, 18.2851861589899, 67.9551947717529, -49751.219767233, 0, ]
  - [9200, -49749.0896984904, 299.811726784461, -49449.277971706, 198.872027491889, 52.1065, 52.1065, 52.1065, 141473.69859895, 264.03457592853, 375.101807644627, 156.071132203025, 260.930787937938, -49749.0896984904, 0, ]
  - [9300, -49754.9935923174, 302.493625324161, -49452.4999669933, 200.650992597217, 52.1065, 52.1065, 52.1065, 141473.69859895, -484.470228310759, -441.45417966101, -524.936325498705, -487.020179772562, -49754.9935923174, 0, ]
  - [9400, -49749.8181050519, 296.513003255433, -49453.3051017965, 196.683908156501, 52.1065, 52.1065, 52.1065, 141473.69859895, 245.120051457792, 264.729333427211, 275.668753384434, 194.962067561729, -49749.8181050519, 0, ]
  - [9500, -49749.6792386976, 303.288937251372, -49446.3903014462, 201.178541326379, 52.1065, 52.1065, 52.1065, 141473.69859895, 400.836317491917, 293.958571762975, 461.00124727033, 447.549133442444, -49749.6792386976, 0, ]
  - [9600, -49750.5391565784, 304.339282650824, -49446.1998739276, 201.875259634885, 52.1065, 52.1065, 52.1065, 141473.69859895, 111.11107687336, 169.294936896024, 126.836481322743, 37.2018124013142, -49750.5391565784, 0, ]
  - [9700, -49750.4482720207, 300.736136636491, -49449.7121353842, 199.485209849625, 52.1065, 52.1065, 52.1065, 141473.69859895, -10.7796936878552, -236.252474066717, 135.864495741148, 68.0488972620027, -49750.4482720207, 0, ]
  - [9800, -49751.9111207484, 305.239105521081, -49446.6720152273, 202.472132881009, 52.1065, 52.1065, 52.1065, 141473.69859895, 128.344110709297, 6.43323137950547, 191.924514119961, 186.674586628426, -49751.9111207484, 0, ]
  - [9900, -49752.1576043803, 305.454029245032, -49446.7035751352, 202.61469673999, 52.1065, 52.1065, 52.1065, 141473.69859895, -28.2552456592555, 36.9339909898832, -93.8059408259964, -27.8937871416529, -49752.1576043803, 0, ]
  - [10000, -49749.8811009527, 296.350680220308, -49453.5304207324, 196.576235546593, 52.1065, 52.1065, 52.1065, 141473.69859895, 316.808369240447, 262.319175327872, 383.199943593362, 304.905988800109, -49749.8811009527, 0, ]
  - [10100, -49748.9204802263, 304.428685870443, -49444.4917943558, 201.934562850742, 52.1065, 52.1065, 52.1065, 141473.69859895, 285.998400864904, 224.639153967519, 316.434885264219, 316.921163362972, -49748.9204802263, 0, ]
  - [10200, -49754.0276618543, 301.824853883847, -49452.2028079704, 200.20738108912, 52.1065, 52.1065, 52.1065, 141473.69859895, -415.177217733989, -360.591875111169, -506.379973837332, -378.559804253466, -49754.0276618543, 0, ]
  - [10300, -49750.3689911641, 301.200652197896, -49449.1683389663, 199.793333726195, 52.1065, 52.1065, 52.1065, 141473.69859895, 142.241741264668, 110.838471231912, 292.156682364397, 23.7300701976944, -49750.3689911641, 0, ]
  - [10400, -49745.5829763379, 297.764889586324, -49447.8180867515, 197.514313209312, 52.1065, 52.1065, 52.1065, 141473.69859895, 705.65496895166, 771.446602175989, 647.618163186992, 697.900141492, -49745.5829763379, 0, ]
  - [10500, -49749.3932734304, 299.367331415055, -49450.0259420153, 198.577249802338, 52.1065, 52.1065, 52.1065, 141473.69859895, 439.990151590489, 569.008934039689, 544.755003658321, 206.206517073457, -49749.3932734304, 0, ]
  - [10600, -49751.9476949392, 303.238696387483, -49448.7089985517, 201.145215403568, 52.1065, 52.1065, 52.1065, 141473.69859895, 5.57826254343411, 89.0402244485937, 103.982879723467, -176.288316541758, -49751.9476949392, 0, ]
  - [10700, -49751.5259736165, 302.76260421872, -49448.7633693978, 200.829412496556, 52.1065, 52.1065, 52.1065, 141473.69859895, -191.699736312678, -207.906557095826, -140.446737480988, -226.74591436122, -49751.5259736165, 0, ]
  - [10800, -49749.750136389, 301.657989412647, -49448.0921469763, 200.096696040006, 52.1065, 52.1065, 52.1065, 141473.69859895, 249.275455380832, 227.257715286596, 224.109778228921, 296.458872626979, -49749.750136389, 0, ]
  - [10900, -49753.6892257208, 302.461224016878, -49451.228001704, 200.629500063413, 52.1065, 52.1065, 52.1065, 141473.69859895, -320.052553839459, -151.31296290221, -397.488824550874, -411.355874065293, -49753.6892257208, 0, ]
  - [11000, -49750.7838742241, 301.28608803675, -49449.4977861874, 199.850005286963, 52.1065, 52.1065, 52.1065, 141473.69859895, 97.4771139849729, 113.491755842088, 9.01212338004085, 169.927462732791, -49750.7838742241, 0, ]
  - [11100, -49751.6549602627, 300.438325121012, -49451.2166351417, 199.287664608387, 52.1065, 52.1065, 52.1065, 141473.69859895, -182.91647914494, -117.463997986838, -226.003723510497, -205.281715937484, -49751.6549602627, 0, ]
  - [11200, -49748.9802810779, 302.418443300705, -49446.5618377772, 200.6011226285, 52.1065, 52.1065, 52.1065, 141473.69859895, 463.571539870409, 356.622573461432, 453.758027210631, 580.334018939165, -49748.9802810779, 0, ]
  - [11300, -49751.0327302989, 303.868211723459, -49447.1645185755, 201.562787433006, 52.1065, 52.1065, 52.1065, 141473.69859895, 136.506981969223, 148.215051922072, -4.63624025863937, 265.942134244237, -49751.0327302989, 0, ]
  - [11400, -49746.4660512851, 303.279359354548, -49443.1866919306, 201.172188086694, 52.1065, 52.1065, 52.1065, 141473.69859895, 815.252831762865, 783.564999888257, 953.571966805495, 708.621528594845, -49746.4660512851, 0, ]
  - [11500, -49754.0716072741, 305.517628949417, -49448.5539783247, 202.656883889554, 52.1065, 52.1065, 52.1065, 141473.69859895, -320.309644244491, -397.968525340504, -172.029522612471, -390.930884780498, -49754.0716072741, 0, ]
  - [11600, -49750.7005415845, 301.622019589016, -49449.0785219955, 200.072836427073, 52.1065, 52.1065, 52.1065, 141473.69859895, -54.4227312871806, 12.3748517938688, -74.1804294045976, -101.462616250813, -49750.7005415845, 0, ]
  - [11700, -49751.5488067071, 302.090172472267, -49449.4586342349, 200.383373023045, 52.1065, 52.1065, 52.1065, 141473.69859895, 23.7588556523966, -94.8912760673764, -4.00324214762774, 170.171085172193, -49751.5488067071, 0, ]
  - [11800, -49750.7480437324, 302.010283360998, -49448.7377603714, 200.330380734508, 52.1065, 52.1065, 52.1065, 141473.69859895, 95.4504159105018, 1.41756968356723, 103.143572549971, 181.790105497966, -49750.7480437324, 0, ]
  - [11900, -49748.9132505475, 301.219855328, -49447.6933952195, 199.806071604927, 52.1065, 52.1065, 52.1065, 141473.69859895, 383.695183334056, 298.640397645278, 393.222819748276, 459.222332608613, -49748.9132505475, 0, ]
  - [12000, -49753.085339274, 300.988453388312, -49452.0968858857, 199.652577365709, 52.1065, 52.1065, 52.1065, 141473.69859895, -162.431126757656, -238.483546676218, -93.9140094682031, -154.895824128545, -49753.085339274, 0, ]
  - [12100, -49751.9135927561, 299.805680004045, -49452.1079127521, 198.868016523092, 52.1065, 52.1065, 52.1065, 141473.69859895, -117.798834289588, -228.172254319303, -69.3493713137535, -55.874877235709, -49751.9135927561, 0, ]
  - [12200, -49749.8720641261, 301.573713438613, -49448.2983506875, 200.040793844303, 52.1065, 52.1065, 52.1065, 141473.69859895, 268.413697275377, 147.453746876085, 264.627280451197, 393.160064498849, -49749.8720641261, 0, ]
  - [12300, -49753.0105260638, 302.177870280945, -49450.8326557829, 200.441545000524, 52.1065, 52.1065, 52.1065, 141473.69859895, -60.7239819286201, -134.273864419233, -121.47904891615, 73.5809675495228, -49753.0105260638, 0, ]
  - [12400, -49748.1002252921, 300.596465397447, -49447.5037598947, 199.392562698065, 52.1065, 52.1065, 52.1065, 141473.69859895, 544.042064424879, 546.403212444491, 617.53573727783, 468.187243552317, -49748.1002252921, 0, ]
  - [12500, -49753.3128567743, 299.631569145772, -49453.6812876286, 198.752524778441, 52.1065, 52.1065, 52.1065, 141473.69859895, -294.665004928035, -287.54697180796, -235.471521508715, -360.97652146743, -49753.3128567743, 0, ]
  - [12600, -49753.3034225719, 302.912564903269, -49450.3908576686, 200.928884874438, 52.1065, 52.1065, 52.1065, 141473.69859895, -146.573784284146, -246.466344508956, -251.86589424062, 58.6108858971379, -49753.3034225719, 0, ]
  - [12700, -49753.7297134452, 303.706171266333, -49450.0235421788, 201.455302263596, 52.1065, 52.1065, 52.1065, 141473.69859895, -110.565818590836, -91.4558633612448, -176.637724398156, -63.6038680131075, -49753.7297134452, 0, ]
  - [12800, -49752.0974467054, 298.923152496894, -49453.1742942085, 198.282615689886, 52.1065, 52.1065, 52.1065, 141473.69859895, -54.9487954942703, -52.0293916202522, -98.7038444940132, -14.1131503685464, -49752.0974467054, 0, ]
  - [12900, -49750.8836198317, 301.448353186789, -49449.4352666449, 199.95763950036, 52.1065, 52.1065, 52.1065, 141473.69859895, 8.03302861951092, -9.1226167800263, 101.207786879325, -67.9860842407649, -49750.8836198317, 0, ]
  - [13000, -49751.9965729792, 301.58745054037, -49450.4091224388, 200.049905980467, 52.1065, 52.1065, 52.1065, 141473.69859895, -66.2741127150445, -15.4095507486136, -103.339087435942, -80.0736999605758, -49751.9965729792, 0, ]
  - [13100, -49749.9225743704, 306.364028095911, -49443.5585462744, 203.218319948563, 52.1065, 52.1065, 52.1065, 141473.69859895, 248.708304282861, 163.608120717236, 335.888312157307, 246.62847997404, -49749.9225743704, 0, ]
  - [13200, -49751.0703111459, 302.591774880506, -49448.4785362654, 200.716097459782, 52.1065, 52.1065, 52.1065, 141473.69859895, 87.7752612920939, 109.625135008131, 50.6126373247324, 103.088011543419, -49751.0703111459, 0, ]
  - [13300, -49752.0229997918, 304.441437985975, -49447.5815618058, 201.943021622845, 52.1065, 52.1065, 52.1065, 141473.69859895, -76.935910076037, -13.6450620214243, 18.1033605994076, -235.266028806095, -49752.0229997918, 0, ]
  - [13400, -49752.5333198181, 301.442820241759, -49451.0904995763, 199.953969370415, 52.1065, 52.1065, 52.1065, 141473.69859895, 13.328812028646, -40.4722911295482, -17.2250898898246, 97.6838171053106, -49752.5333198181, 0, ]
  - [13500, -49749.4793062619, 297.026499685734, -49452.4528065761, 197.024522172168, 52.1065, 52.1065, 52.1065, 141473.69859895, 190.702610206125, 152.182091789416, 249.330444003477, 170.595294825484, -49749.4793062619, 0, ]
  - [13600, -49750.1907968909, 295.979879005456, -49454.2109178855, 196.330274555724, 52.1065, 52.1065, 52.1065, 141473.69859895, 29.6417794151078, 76.5280803749315, 17.2663770065235, -4.86911913613031, -49750.1907968909, 0, ]
  - [13700, -49753.4308180804, 303.048881820885, -49450.3819362595, 201.019307027296, 52.1065, 52.1065, 52.1065, 141473.69859895, -243.831640190287, -107.973565469179, -171.127869296138, -452.393485805544, -49753.4308180804, 0, ]
  - [13800, -49751.8692676935, 301.074113245352, -49450.7951544481, 199.709397522902, 52.1065, 52.1065, 52.1065, 141473.69859895, -18.183888587458, -52.8364057754934, 57.0184540680773, -58.7337140549589, -49751.8692676935, 0, ]
  - [13900, -49749.5687342428, 298.267781888485, -49451.3009523543, 197.847893262412, 52.1065, 52.1065, 52.1065, 141473.69859895, 222.227579182352, 355.993675184955, 80.8436566651834, 229.845405696919, -49749.5687342428, 0, ]
  - [14000, -49752.3228344067, 303.73823765166, -49448.584596755, 201.476572635949, 52.1065, 52.1065, 52.1065, 141473.69859895, -69.6733268596732, 17.8296011630961, -137.287597406339, -89.561984335777, -49752.3228344067, 0, ]
  - [14100, -49751.414350876, 299.858229625463, -49451.5561212505, 198.902873897976, 52.1065, 52.1065, 52.1065, 141473.69859895, 33.6064976658918, -32.1928823164431, -52.7205422551486, 185.732917569266, -49751.414350876, 0, ]
  - [14200, -49753.4916671858, 302.260621453487, -49451.2310457323, 200.49643576026, 52.1065, 52.1065, 52.1065, 141473.69859895, -239.976586318931, -216.518271591718, -207.329077223578, -296.082410141498, -49753.4916671858, 0, ]
  - [14300, -49750.5961976576, 301.15214170539, -49449.4440559522, 199.7611555986, 52.1065, 52.1065, 52.1065, 141473.69859895, 187.972489402884, 254.411105869641, 168.602574784717, 140.903787554294, -49750.5961976576, 0, ]
  - [14400, -49748.2033662972, 300.754168081985, -49447.4491982152, 199.497170522953, 52.1065, 52.1065, 52.1065, 141473.69859895, 397.541551114637, 425.088838362223, 361.249868496513, 406.285946485176, -49748.2033662972, 0, ]
  - [14500, -49751.3195327504, 304.218179118672, -49447.1013536317, 201.794928871197, 52.1065, 52.1065, 52.1065, 141473.69859895, 178.526787356909, -109.997733410094, 281.524762902329, 364.053332578494, -49751.3195327504, 0, ]
  - [14600, -49751.9292245941, 304.165851672705, -49447.7633729214, 201.760218870409, 52.1065, 52.1065, 52.1065, 141473.69859895, -4.46846085053495, 5.77722001477611, 131.042617660217, -150.225220226598, -49751.9292245941, 0, ]
  - [14700, -49753.6066434873, 300.759223491981, -49452.8474199953, 199.500523892905, 52.1065, 52.1065, 52.1065, 141473.69859895, -362.510246657286, -268.807378867713, -411.795166157349, -406.928194946797, -49753.6066434873, 0, ]
  - [14800, -49755.1688441145, 302.551201845088, -49452.6176422694, 200.68918443039, 52.1065, 52.1065, 52.1065, 141473.69859895, -507.042402646675, -640.520897306407, -423.854367846748, -456.751942786871, -49755.1688441145, 0, ]
  - [14900, -49750.4301466892, 301.698397110706, -49448.7317495785, 200.123499397319, 52.1065, 52.1065, 52.1065, 141473.69859895, 276.40682098636, 268.608087840062, 368.037113641136, 192.575261477881, -49750.4301466892, 0, ]
  - [15000, -49750.791286865, 302.313885583272, -49448.4774012817, 200.53176708501, 52.1065, 52.1065, 52.1065, 141473.69859895, 116.72344560265, 96.2838808617819, 148.739829157721, 105.146626788446, -49750.791286865, 0, ]
  - [15100, -49751.388963909, 300.56566080172, -49450.8233031073, 199.372129299832, 52.1065, 52.1065, 52.1065, 141473.69859895, 76.9553054298294, 75.1466645517078, 81.2453427437227, 74.4739089940584, -49751.388963909, 0, ]
  - [15200, -49750.5693183983, 300.347512098591, -49450.2218062997, 199.227426237842, 52.1065, 52.1065, 52.1065, 141473.69859895, 156.999709285018, 197.876187295571, 196.348507515039, 76.7744330444458, -49750.5693183983, 0, ]
  - [15300, -49752.4441942324, 301.597643172081, -49450.8465510603, 200.056666987969, 52.1065, 52.1065, 52.1065, 141473.69859895, -34.3794877813089, 49.8410653124183, -29.7927717932099, -123.186756863135, -49752.4441942324, 0, ]
  - [15400, -49748.2989486002, 299.654545402048, -49448.6444031981, 198.767765458713, 52.1065, 52.1065, 52.1065, 141473.69859895, 595.484416009098, 601.545913089353, 530.867441399359, 654.039893538582, -49748.2989486002, 0, ]
  - [15500, -49749.9688389251, 303.847297853488, -49446.1215410716, 201.548914781098, 52.1065, 52.1065, 52.1065, 141473.69859895, 345.384194168782, 454.948055398596, 308.543553096938, 272.660974010813, -49749.9688389251, 0, ]
  - [15600, -49750.568091196, 303.925983143953, -49446.6421080521, 201.601108547553, 52.1065, 52.1065, 52.1065, 141473.69859895, 329.562341296771, 359.254902900238, 360.722623042851, 268.709497947224, -49750.568091196, 0, ]
  - [15700, -49747.3259616836, 298.375757569256, -49448.9502041143, 197.919516019751, 52.1065, 52.1065, 52.1065, 141473.69859895, 589.504059703885, 563.129402699971, 541.843291820079, 663.539484591605, -49747.3259616836, 0, ]
  - [15800, -49751.5827012588, 302.056927447355, -49449.5257738115, 200.361320831895, 52.1065, 52.1065, 52.1065, 141473.69859895, -54.5576883445086, 0.086846799999788, -109.949107895267, -53.8108039382582, -49751.5827012588, 0, ]
  - [15900, -49753.4053659968, 298.129140952074, -49455.2762250447, 197.755929534331, 52.1065, 52.1065, 52.1065, 141473.69859895, -251.137263169313, -305.96550478364, -207.187391450282, -240.258893274017, -49753.4053659968, 0, ]
  - [16000, -49752.0173854082, 302.208741529507, -49449.8086438787, 200.462022611119, 52.1065, 52.1065, 52.1065, 141473.69859895, 60.2973595111199, 245.090002782908, -158.140278258172, 93.9423540086254, -49752.0173854082, 0, ]
  - [16100, -49748.4770795119, 300.995458136077, -49447.4816213758, 199.657223776325, 52.1065, 52.1065, 52.1065, 141473.69859895, 368.154882613116, 445.875516733505, 375.987794901892, 282.601336203953, -49748.4770795119, 0, ]
  - [16200, -49749.4127209766, 303.614225039769, -49445.7984959369, 201.39431221263, 52.1065, 52.1065, 52.1065, 141473.69859895, 416.354768377147, 418.139811836214, 375.050648493298, 455.87384480193, -49749.4127209766, 0, ]
  - [16300, -49750.7504578601, 303.111858099979, -49447.6385997601, 201.061080644498, 52.1065, 52.1065, 52.1065, 141473.69859895, 105.36435020581, 185.876849491077, 79.4904175414559, 50.7257835848991, -49750.7504578601, 0, ]
  - [16400, -49749.2901065025, 299.013926654557, -49450.276179848, 198.342828280541, 52.1065, 52.1065, 52.1065, 141473.69859895, 280.191376925723, 271.431834102494, 299.313916523787, 269.828380150889, -49749.2901065025, 0, ]
  - [16500, -49752.9752390008, 302.355601268575, -49450.6196377322, 200.559438060403, 52.1065, 52.1065, 52.1065, 141473.69859895, -186.629513777711, -147.661643560364, -257.325254165949, -154.901643606819, -49752.9752390008, 0, ]
  - [16600, -49750.3142739211, 301.261878195163, -49449.0523957259, 199.833946341127, 52.1065, 52.1065, 52.1065, 141473.69859895, 67.067377669565, 163.588172093608, 44.7140366107029, -7.10007569561538, -49750.3142739211, 0, ]
  - [16700, -49750.6083692309, 300.44180495171, -49450.1665642792, 199.289972860281, 52.1065, 52.1065, 52.1065, 141473.69859895, -12.8259745291638, 73.3636052807703, 15.1334897698062, -126.975018638068, -49750.6083692309, 0, ]
  - [16800, -49752.732518807, 303.840508532105, -49448.8920102749, 201.544411267765, 52.1065, 52.1065, 52.1065, 141473.69859895, -317.566890962558, -311.916694860049, -368.657640094951, -272.126337932672, -49752.732518807, 0, ]
  - [16900, -49752.252847766, 301.750488070872, -49450.5023596952, 200.158052531625, 52.1065, 52.1065, 52.1065, 141473.69859895, 37.6703658035112, 33.0664218748786, -12.1887336669379, 92.1334092025922, -49752.252847766, 0, ]
  - [17000, -49747.2570203045, 299.403235856654, -49447.8537844478, 198.601066045863, 52.1065, 52.1065, 52.1065, 141473.69859895, 644.739579164052, 704.351668445198, 629.541228206139, 600.325840840819, -49747.2570203045, 0, ]
  - [17100, -49751.2878877794, 299.995997616538, -49451.2918901628, 198.994258581299, 52.1065, 52.1065, 52.1065, 141473.69859895, -7.5812212287713, -69.7152497149311, -44.6849355302162, 91.6565215588334, -49751.2878877794, 0, ]
  - [17200, -49750.6113942627, 299.51371277034, -49451.0976814923, 198.674347928634, 52.1065, 52.1065, 52.1065, 141473.69859895, 185.133045210542, 259.025271474306, 156.896451153001, 139.47741300432, -49750.6113942627, 0, ]
  - [17300, -49751.8643330939, 298.728881150567, -49453.1354519433, 198.153751028914, 52.1065, 52.1065, 52.1065, 141473.69859895, 107.668144890383, 164.621716867651, 41.6075411113694, 116.775176692128, -49751.8643330939, 0, ]
  - [17400, -49751.5195599377, 298.796279661846, -49452.7232802759, 198.198458014634, 52.1065, 52.1065, 52.1065, 141473.69859895, -118.127591445374, -59.5841674467349, -179.281664781245, -115.516942108141, -49751.5195599377, 0, ]
  - [17500, -49750.8190312068, 296.512778057647, -49454.3062531492, 196.68375877762, 52.1065, 52.1065, 52.1065, 141473.69859895, 219.071467446352, 201.567472563923, 127.661209257234, 327.985720517901, -49750.8190312068, 0, ]
  - [17600, -49751.7136043693, 302.523667437326, -49449.189936932, 200.670920223195, 52.1065, 52.1065, 52.1065, 141473.69859895, -31.2311074455029, -40.6967812907172, -74.182628261044, 21.1860872152518, -49751.7136043693, 0, ]
  - [17700, -49752.2576576381, 299.021068682146, -49453.236588956, 198.347565752027, 52.1065, 52.1065, 52.1065, 141473.69859895, -2.94602722186995, -212.205865824648, -14.8504285704464, 218.218212729484, -49752.2576576381, 0, ]
  - [17800, -49753.4757057539, 303.97274503422, -49449.5029607197, 201.632126786988, 52.1065, 52.1065, 52.1065, 141473.69859895, -287.869760087211, -145.427992837182, -465.729354878143, -252.451932546309, -49753.4757057539, 0, ]
  - [17900, -49753.6582729638, 300.94116880692, -49452.7171041569, 199.621212413206, 52.1065, 52.1065, 52.1065, 141473.69859895, -338.16586685517, -431.409230514724, -153.933862460445, -429.154507590341, -49753.6582729638, 0, ]
  - [18000, -49752.8067321978, 299.180175654465, -49453.6265565433, 198.453105073362, 52.1065, 52.1065, 52.1065, 141473.69859895, -111.034279486067, -215.724529172824, -1.53045153957326, -115.847857745802, -49752.8067321978, 0, ]
  - [18100, -49750.3195470952, 302.006401180947, -49448.3131459142, 200.327805595017, 52.1065, 52.1065, 52.1065, 141473.69859895, 184.954950633356, 109.045389934554, 160.177529482331, 285.641932483184, -49750.3195470952, 0, ]
  - [18200, -49752.4663282196, 303.146609512435, -49449.3197187071, 201.084132057221, 52.1065, 52.1065, 52.1065, 141473.69859895, -146.24000589019, -84.5710789907988, -125.104718982976, -229.044219696795, -49752.4663282196, 0, ]
  - [18300, -49753.9526745293, 301.305162079864, -49452.6475124494, 199.862657539319, 52.1065, 52.1065, 52.1065, 141473.69859895, -366.81437982104, -519.948758464532, -282.578365727994, -297.916015270594, -49753.9526745293, 0, ]
  - [18400, -49755.0139812032, 297.849224573357, -49457.1647566299, 197.570254549698, 52.1065, 52.1065, 52.1065, 141473.69859895, -568.989832379226, -589.44015428052, -589.728539676907, -527.800803180252, -49755.0139812032, 0, ]
  - [18500, -49752.5309546941, 299.902263386755, -49452.6286913074, 198.932082506593, 52.1065, 52.1065, 52.1065, 141473.69859895, -204.993242014176, -265.335091123368, -209.627508657741, -140.017126261421, -49752.5309546941, 0, ]
  - [18600, -49752.4716811488, 300.663532819006, -49451.8081483298, 199.437050064343, 52.1065, 52.1065, 52.1065, 141473.69859895, -250.819739261183, -255.810371599054, -295.170798731024, -201.47804745347, -49752.4716811488, 0, ]
  - [18700, -49750.7107235908, 299.935879439885, -49450.7748441509, 198.954380809311, 52.1065, 52.1065, 52.1065, 141473.69859895, 172.936503822244, 313.036261137895, 9.17683903133124, 196.596411297504, -49750.7107235908, 0, ]
  - [18800, -49752.7594920306, 299.948743607117, -49452.8107484235, 198.962913907888, 52.1065, 52.1065, 52.1065, 141473.69859895, -398.872382651196, -391.065820105713, -502.004687853995, -303.546639993884, -49752.7594920306, 0, ]
  - [18900, -49753.0679542609, 299.322728906531, -49453.7452253544, 198.547663930576, 52.1065, 52.1065, 52.1065, 141473.69859895, -343.484061128185, -322.37247175927, -326.603870616347, -381.475841008938, -49753.0679542609, 0, ]
  - [19000, -49754.5623284861, 301.629119177966, -49452.9332093081, 200.077545748032, 52.1065, 52.1065, 52.1065, 141473.69859895, -451.976604623937, -340.498941193756, -489.79204486587, -525.638827812185, -49754.5623284861, 0, ]
  - [19100, -49752.8018189617, 297.859759510085, -49454.9420594516, 197.577242616006, 52.1065, 52.1065, 52.1065, 141473.69859895, -274.585731157851, -336.562443400439, -224.127921262312, -263.066828810802, -49752.8018189617, 0, ]
  - [19200, -49750.9316220465, 302.222124941453, -49448.7094971051, 200.470900136681, 52.1065, 52.1065, 52.1065, 141473.69859895, 128.94708706606, 52.9246571488414, 174.433617661032, 159.482986388307, -49750.9316220465, 0, ]
  - [19300, -49748.7425715914, 299.691658655931, -49449.0509129355, 198.792383535283, 52.1065, 52.1065, 52.1065, 141473.69859895, 292.638793810249, 255.205526268184, 339.674079766684, 283.03677539588, -49748.7425715914, 0, ]
  - [19400, -49751.9351765055, 300.763990096304, -49451.1711864092, 199.503685691398, 52.1065, 52.1065, 52.1065, 141473.69859895, -294.254172648684, -285.752562523407, -322.851580229992, -274.158375192654, -49751.9351765055, 0, ]
  - [19500, -49751.890172466, 307.329205544938, -49444.560966921, 203.858544392871, 52.1065, 52.1065, 52.1065, 141473.69859895, 2.49121088401523, 25.6647407410937, -37.1928889346236, 19.0017808455766, -49751.890172466, 0, ]
  - [19600, -49751.0784004351, 304.224785864124, -49446.853614571, 201.799311277706, 52.1065, 52.1065, 52.1065, 141473.69859895, 0.588024980136163, -2.37082620085354, -107.316037453371, 111.450938594633, -49751.0784004351, 0, ]
  - [19700, -49750.0119369938, 299.198358113817, -49450.81357888, 198.465165917663, 52.1065, 52.1065, 52.1065, 141473.69859895, 383.252302253597, 380.490695434333, 516.822368243596, 252.443843082862, -49750.0119369938, 0, ]
  - [19800, -49752.0681854628, 300.418697730171, -49451.6494877326, 199.274645307731, 52.1065, 52.1065, 52.1065, 141473.69859895, -19.8899541624294, 1.47457675736179, -76.6097057626985, 15.4652665180492, -49752.0681854628, 0, ]
  - [19900, -49750.8375692241, 297.901537111156, -49452.936032113, 197.604954661555, 52.1065, 52.1065, 52.1065, 141473.69859895, 63.3672722524782, 25.4768411169801, 129.224426362004, 35.4005492784506, -49750.8375692241, 0, ]
  - [20000, -49750.7249888093, 299.0221244069, -49451.7028644024, 198.348266038586, 52.1065, 52.1065, 52.1065, 141473.69859895, 120.585679139013, 164.57669953823, 65.5294440442649, 131.650893834544, -50052.3710285596, 0, ]
...
Loop time of 17.1584 on 64 procs for 20000 steps with 11664 atoms

Performance: 100.708 ns/day, 0.238 hours/ns, 1165.607 timesteps/s, 13.596 Matom-step/s
70.1% CPU use with 64 MPI tasks x 1 OpenMP threads

MPI task timing breakdown:
Section |  min time  |  avg time  |  max time  |%varavg| %total
---------------------------------------------------------------
Pair    | 8.1765     | 9.4401     | 10.907     |  18.5 | 55.02
Neigh   | 0          | 0          | 0          |   0.0 |  0.00
Comm    | 3.519      | 4.6999     | 6.0497     |  25.9 | 27.39
Output  | 0.032556   | 0.034183   | 0.11188    |   5.3 |  0.20
Modify  | 2.2148     | 2.4814     | 2.9279     |  12.1 | 14.46
Other   |            | 0.5029     |            |       |  2.93

Nlocal:         182.25 ave         250 max         128 min
Histogram: 1 6 15 0 18 11 6 6 0 1
Nghost:        1275.75 ave        1330 max        1208 min
Histogram: 1 0 6 6 9 20 0 15 6 1
Neighs:           8019 ave       11000 max        5632 min
Histogram: 1 6 10 9 14 11 6 4 2 1

Total # of neighbors = 513216
Ave neighs/atom = 44
Neighbor list builds = 0
Dangerous builds = 0
fix fpf all print 1 "${dE} ${lambda}" title "# dE [eV] lambda" screen no file data/forward_${T}K.dat
fix fpf all print 1 "${dE} ${lambda}" title "# dE [eV] lambda" screen no file data/forward_200K.dat
run ${t}
run 100000
Per MPI rank memory allocation (min/avg/max) = 3.731 | 3.734 | 3.736 Mbytes
---
keywords: ['Step', 'PotEng', 'KinEng', 'TotEng', 'Temp', 'Lx', 'Ly', 'Lz', 'Volume', 'Press', 'Pxx', 'Pyy', 'Pzz', 'v_dE', 'v_lambda', ]
data:
  - [20000, -49750.7249888093, 299.0221244069, -49451.7028644024, 198.348266038586, 52.1065, 52.1065, 52.1065, 141473.69859895, 120.585679139029, 164.57669953826, 65.5294440442711, 131.650893834555, -50052.3710285596, 0, ]
  - [20100, -49752.5162883748, 303.801110478444, -49448.7151778964, 201.518277630849, 52.1065, 52.1065, 52.1065, 141473.69859895, -144.715316760582, -81.9553156219839, -228.251938002697, -123.938696657064, -50058.5148965953, 1.2558053968507e-13, ]
  - [20200, -49750.9354555262, 302.683823709682, -49448.2516318165, 200.777155569426, 52.1065, 52.1065, 52.1065, 141473.69859895, 338.507197996041, 365.124247832082, 279.616882535297, 370.780463620746, -50052.892225621, 4.00518903939584e-12, ]
  - [20300, -49751.2002789925, 303.03325644829, -49448.1670225442, 201.008942357569, 52.1065, 52.1065, 52.1065, 141473.69859895, 181.015986050808, 105.09991183448, 148.380979821144, 289.567066496799, -50051.8628047816, 3.03129989146628e-11, ]
  - [20400, -49749.0903332073, 297.576074508694, -49451.5142586986, 197.389067817105, 52.1065, 52.1065, 52.1065, 141473.69859895, 555.787504224458, 760.165320214928, 401.264575982334, 505.932616476111, -50050.7521152092, 1.2731250673451e-10, ]
  - [20500, -49750.8230824722, 297.689073297175, -49453.1340091751, 197.464022517544, 52.1065, 52.1065, 52.1065, 141473.69859895, 114.530258183346, 241.317176685106, 76.0880814775765, 26.1855163873546, -50047.6909094068, 3.87229564589844e-10, ]
  - [20600, -49752.5281853101, 298.164062867281, -49454.3641224428, 197.779094045458, 52.1065, 52.1065, 52.1065, 141473.69859895, -155.529279099747, -242.272390412253, -152.321534102919, -71.9939127840707, -50050.337524875, 9.60331117066399e-10, ]
  - [20700, -49751.9686694283, 300.340775364534, -49451.6278940638, 199.222957606895, 52.1065, 52.1065, 52.1065, 141473.69859895, -59.5121400533917, -96.4976399151599, 8.1217849109206, -90.1605651559356, -50051.0504424355, 2.06871232013244e-09, ]
  - [20800, -49747.9398827444, 301.727244748356, -49446.2126379961, 200.142634700161, 52.1065, 52.1065, 52.1065, 141473.69859895, 429.328189689287, 467.913316861199, 407.937753542804, 412.133498663858, -50053.8077103544, 4.0197947066522e-09, ]
  - [20900, -49750.6884428341, 303.791759968585, -49446.8966828655, 201.512075222179, 52.1065, 52.1065, 52.1065, 141473.69859895, 46.046135469567, 33.1186748279622, 23.0850972774266, 81.9346343033123, -50053.0579177423, 7.21953805066232e-09, ]
  - [21000, -49751.8715452412, 298.225870743477, -49453.6456744978, 197.820092634092, 52.1065, 52.1065, 52.1065, 141473.69859895, -104.948312561658, -133.853935581435, -151.815093430981, -29.1759086725597, -50049.5150217861, 1.218536857e-08, ]
  - [21100, -49753.1809558762, 299.628234420184, -49453.5527214561, 198.75031277811, 52.1065, 52.1065, 52.1065, 141473.69859895, -239.363616502279, -343.57788217054, -179.383642438886, -195.129324897412, -50050.4702817664, 1.95588260943488e-08, ]
  - [21200, -49753.1694199069, 303.074369677321, -49450.0950502296, 201.036213709833, 52.1065, 52.1065, 52.1065, 141473.69859895, -198.38424557267, -121.336553211236, -295.772752488479, -178.043431018295, -50053.7201758582, 3.01179328132704e-08, ]
  - [21300, -49747.2273343718, 299.992316627019, -49447.2350177448, 198.991816896123, 52.1065, 52.1065, 52.1065, 141473.69859895, 520.527009260108, 404.774395258628, 540.564438684061, 616.242193837634, -50060.1555978715, 4.47892862063179e-08, ]
  - [21400, -49754.7512884818, 303.157635891902, -49451.5936525899, 201.091446108822, 52.1065, 52.1065, 52.1065, 141473.69859895, -473.369618645636, -488.351367948258, -490.095441897764, -441.662046090886, -50051.2592317564, 6.46598787448807e-08, ]
  - [21500, -49752.7672191114, 299.001979029114, -49453.7652400822, 198.334903145253, 52.1065, 52.1065, 52.1065, 141473.69859895, -142.644555239069, -129.201999580439, -10.6543304374997, -288.077335699269, -50051.8035937846, 9.09886469429883e-08, ]
  - [21600, -49752.5603325822, 299.487136925234, -49453.073195657, 198.656719558139, 52.1065, 52.1065, 52.1065, 141473.69859895, -36.4580664151209, 75.5596086834732, -272.981824073356, 88.0480161445191, -50048.8319295565, 1.25217752321905e-07, ]
  - [21700, -49753.0742880324, 300.265847854379, -49452.808440178, 199.173256462716, 52.1065, 52.1065, 52.1065, 141473.69859895, -272.327330233174, -223.610092128977, -328.482171797667, -264.889726772877, -50051.6432527366, 1.68983596840977e-07, ]
  - [21800, -49754.2273456479, 301.471454274811, -49452.7558913731, 199.972962984406, 52.1065, 52.1065, 52.1065, 141473.69859895, -340.937591347476, -391.917772783877, -390.202781637867, -240.692219620687, -50049.7164508746, 2.24127575334849e-07, ]
  - [21900, -49748.638544055, 299.320572378561, -49449.3179716764, 198.546233455877, 52.1065, 52.1065, 52.1065, 141473.69859895, 419.765227810572, 465.404965124089, 274.322296764676, 519.568421542951, -50052.1622084433, 2.92706567484841e-07, ]
  - [22000, -49752.9892063372, 300.149116818525, -49452.8400895187, 199.095826076585, 52.1065, 52.1065, 52.1065, 141473.69859895, -356.35621876188, -528.240368322192, -306.997022319457, -233.831265643991, -50047.5213093221, 3.7700317184e-07, ]
  - [22100, -49751.7122755736, 300.391370403178, -49451.3209051704, 199.256518461983, 52.1065, 52.1065, 52.1065, 141473.69859895, -19.332500575222, -131.185164488217, 42.5604384459782, 30.6272243165715, -50051.1029058069, 4.79535684391045e-07, ]
  - [22200, -49754.4217321174, 300.816885838518, -49453.6048462789, 199.538772656183, 52.1065, 52.1065, 52.1065, 141473.69859895, -386.594176682228, -520.582006914495, -444.818779175903, -194.381743956286, -50055.0858527911, 6.03067824188202e-07, ]
  - [22300, -49751.7436825896, 297.641964605119, -49454.1017179845, 197.432774236491, 52.1065, 52.1065, 52.1065, 141473.69859895, -130.912107334532, -139.555733752632, -190.86379535226, -62.316792898703, -50048.6884527617, 7.50618208481703e-07, ]
  - [22400, -49751.1533419176, 303.634939140274, -49447.5184027773, 201.408052352848, 52.1065, 52.1065, 52.1065, 141473.69859895, 104.895491808105, 204.063842374534, 8.79307073651968, 101.829562313262, -50051.5695117538, 9.25469579851522e-07, ]
  - [22500, -49750.4123802379, 305.747950352267, -49444.6644298856, 202.809661383786, 52.1065, 52.1065, 52.1065, 141473.69859895, 161.578939414075, 82.9982099585427, 164.529103074987, 237.209505208695, -50052.7628616836, 1.13117778778076e-06, ]
  - [22600, -49749.9305947689, 302.06397507517, -49447.8666196937, 200.365995685836, 52.1065, 52.1065, 52.1065, 141473.69859895, 377.577549645254, 445.386532425586, 270.147300003775, 417.198816506401, -50051.7587794173, 1.37158052711496e-06, ]
  - [22700, -49747.1379038754, 302.611657314756, -49444.5262465607, 200.729285936607, 52.1065, 52.1065, 52.1065, 141473.69859895, 719.177012370427, 784.794778406689, 673.598202412705, 699.138056291887, -50052.8254595893, 1.65080583583745e-06, ]
  - [22800, -49750.284123256, 301.297265251918, -49448.9868580041, 199.857419391362, 52.1065, 52.1065, 52.1065, 141473.69859895, 244.906823553588, 324.720588269119, 133.119825327483, 276.880057064162, -50050.1851411763, 1.97328035457892e-06, ]
  - [22900, -49748.593887975, 301.47255946894, -49447.121328506, 199.973696085141, 52.1065, 52.1065, 52.1065, 141473.69859895, 122.48883355351, 205.784573872573, 27.1127535562116, 134.569173231746, -50052.2054414498, 2.343737350267e-06, ]
  - [23000, -49752.3520758346, 304.327924339386, -49448.0241514953, 201.867725405158, 52.1065, 52.1065, 52.1065, 141473.69859895, -253.510053108305, -255.761184236241, -238.991576991592, -265.777398097083, -50055.8717276988, 2.76722450631e-06, ]
  - [23100, -49750.608049227, 301.86904441059, -49448.7390048164, 200.236693683873, 52.1065, 52.1065, 52.1065, 141473.69859895, 137.807746123518, 98.4270031030889, 92.648784977237, 222.347450290229, -50052.1119851166, 3.2491114816967e-06, ]
  - [23200, -49750.6604595981, 299.470914424792, -49451.1895451733, 198.645958799751, 52.1065, 52.1065, 52.1065, 141473.69859895, 11.1419934706456, 50.8647409873883, 5.01390759246556, -22.4526681679183, -50061.0230714239, 3.79509724138202e-06, ]
  - [23300, -49748.2659389728, 303.716471069016, -49444.5494679038, 201.462134360074, 52.1065, 52.1065, 52.1065, 141473.69859895, 504.839426467983, 504.387782891311, 561.812949425462, 448.317547087176, -50056.7320751972, 4.41121716031674e-06, ]
  - [23400, -49749.1151743268, 304.420398303972, -49444.6947760228, 201.929065516917, 52.1065, 52.1065, 52.1065, 141473.69859895, 303.106632444784, 346.133746133693, 292.080442413684, 271.105708786975, -50055.1596576081, 5.10384990346721e-06, ]
  - [23500, -49750.4172634693, 305.300674729185, -49445.1165887401, 202.512973155597, 52.1065, 52.1065, 52.1065, 141473.69859895, 173.89132180723, 141.13635736514, 192.762148705839, 187.775459350711, -50055.1003929476, 5.87972408415916e-06, ]
  - [23600, -49750.6102153075, 299.65564694353, -49450.954568364, 198.768496136563, 52.1065, 52.1065, 52.1065, 141473.69859895, 142.611064214734, 81.6058893269108, 347.706316548465, -1.4790132311763, -50052.8011782961, 6.74592470306796e-06, ]
  - [23700, -49749.6426871693, 301.794287034243, -49447.8484001351, 200.187105393369, 52.1065, 52.1065, 52.1065, 141473.69859895, 368.254896344115, 335.101670406536, 368.668353351553, 400.994665274257, -50055.2056046627, 7.70989937016563e-06, ]
  - [23800, -49753.4291510137, 301.111208690902, -49452.3179423228, 199.734003786795, 52.1065, 52.1065, 52.1065, 141473.69859895, -283.375295847088, -240.515973509528, -272.445012934156, -337.164901097579, -50055.4728821643, 8.77946431192315e-06, ]
  - [23900, -49750.6089886785, 296.567393256077, -49454.0415954225, 196.719986297338, 52.1065, 52.1065, 52.1065, 141473.69859895, 180.754955239187, 198.901151648339, 196.344656116683, 147.019057952538, -50056.8688867663, 9.96281016605489e-06, ]
  - [24000, -49751.7905405098, 296.364365911773, -49455.426174598, 196.585313581126, 52.1065, 52.1065, 52.1065, 141473.69859895, -206.862619994077, -237.589117423874, -243.840354442244, -139.158388116113, -50059.2043349404, 1.126850756608e-05, ]
  - [24100, -49751.7796705078, 303.297441872657, -49448.4822286352, 201.184182637665, 52.1065, 52.1065, 52.1065, 141473.69859895, -42.3562000395526, 96.6023357609582, -137.021072940191, -86.6498629394242, -50056.4137954704, 1.2705512517964e-05, ]
  - [24200, -49750.4852028965, 303.311242341756, -49447.1739605547, 201.193336806848, 52.1065, 52.1065, 52.1065, 141473.69859895, 59.5863926140741, 101.314810542681, 123.153589319807, -45.7092220202659, -50055.8630411059, 1.42831715710919e-05, ]
  - [24300, -49749.6065052599, 303.243526277506, -49446.3629789824, 201.148419180924, 52.1065, 52.1065, 52.1065, 141473.69859895, 227.746326946783, 216.761815162608, 173.235020378836, 293.242145298906, -50060.3667887093, 1.60112267858132e-05, ]
  - [24400, -49750.0924583989, 304.40600613639, -49445.6864522625, 201.919518860494, 52.1065, 52.1065, 52.1065, 141473.69859895, 90.2917403944938, 83.7853419188316, 163.399486730624, 23.6903925340257, -50068.6926672828, 1.78998204997854e-05, ]
  - [24500, -49748.2634535893, 301.60345591479, -49446.6599976745, 200.060522714162, 52.1065, 52.1065, 52.1065, 141473.69859895, 509.321790342093, 625.691822228927, 582.551313013272, 319.722235784078, -50062.9039594235, 1.99594998953344e-05, ]
  - [24600, -49749.5372047944, 302.407054157378, -49447.130150637, 200.59356794727, 52.1065, 52.1065, 52.1065, 141473.69859895, 308.669040848414, 222.749257669241, 342.98643073657, 360.271434139431, -50057.2678868428, 2.2201221370035e-05, ]
  - [24700, -49751.7684145527, 300.928168141631, -49450.8402464111, 199.612588772321, 52.1065, 52.1065, 52.1065, 141473.69859895, -61.8056593652539, -142.627166874595, 107.400054770962, -150.189865992129, -50052.4834799185, 2.46363547127047e-05, ]
  - [24800, -49750.9097219018, 300.367625856167, -49450.5420960456, 199.240768156761, 52.1065, 52.1065, 52.1065, 141473.69859895, 126.124112388141, 100.470393665707, 121.013929143961, 156.888014354756, -50051.2171963429, 2.7276687086994e-05, ]
  - [24900, -49752.2464426226, 301.00818988386, -49451.2382527387, 199.665669038031, 52.1065, 52.1065, 52.1065, 141473.69859895, -144.39033850872, -232.068855941808, -65.5937041887011, -135.508455395651, -50049.7504511247, 3.01344268247409e-05, ]
  - [25000, -49752.0665364535, 302.317771751283, -49449.7487647022, 200.534344869808, 52.1065, 52.1065, 52.1065, 141473.69859895, -45.7090267565829, -100.977107384743, 96.6573865291736, -132.807359414179, -50051.7833691355, 3.322220703125e-05, ]
  - [25100, -49750.6772950602, 299.385462604943, -49451.2918324553, 198.589276638421, 52.1065, 52.1065, 52.1065, 141473.69859895, 227.816316553488, 189.572755257962, 295.179177342752, 198.69701705975, -50052.6385390242, 3.6553089004642e-05, ]
  - [25200, -49754.175432391, 300.395999440563, -49453.7794329505, 199.259589009156, 52.1065, 52.1065, 52.1065, 141473.69859895, -276.606691849156, -141.282451411307, -396.426444158792, -292.111179977369, -50052.9210283434, 4.01405654714096e-05, ]
  - [25300, -49752.7373670734, 300.960419196354, -49451.7769478771, 199.63398164014, 52.1065, 52.1065, 52.1065, 141473.69859895, -250.485739268272, -150.251796120019, -339.487182962458, -261.718238722338, -50051.3298149477, 4.39985636403039e-05, ]
  - [25400, -49751.8542819833, 299.083201782047, -49452.7710802013, 198.388780069039, 52.1065, 52.1065, 52.1065, 141473.69859895, 26.0610413557106, 129.514846470326, -89.4627808804218, 38.1310584772277, -50051.7007927135, 4.81414480766634e-05, ]
  - [25500, -49752.5214569578, 305.489316754305, -49447.0321402034, 202.638103758086, 52.1065, 52.1065, 52.1065, 141473.69859895, -206.5951940692, -240.886570939103, -130.082162934953, -248.816848333543, -50049.4461038554, 5.25840233992879e-05, ]
  - [25600, -49748.3889283928, 302.249825308809, -49446.139103084, 200.4892744287, 52.1065, 52.1065, 52.1065, 141473.69859895, 458.748516658936, 606.539266127863, 422.632246092808, 347.074037756138, -50045.4507334859, 5.7341536801945e-05, ]
  - [25700, -49747.6073437992, 305.161014909053, -49442.4463288902, 202.420333578464, 52.1065, 52.1065, 52.1065, 141473.69859895, 612.578949739239, 560.338403427018, 546.328533686812, 731.069912103887, -50046.6269122208, 6.24296804015908e-05, ]
  - [25800, -49749.336759279, 301.080340344908, -49448.2564189341, 199.713528101541, 52.1065, 52.1065, 52.1065, 141473.69859895, 312.09766113576, 284.157210613241, 355.677262052556, 296.458510741484, -50053.7685447862, 6.78645934153687e-05, ]
  - [25900, -49747.7640951403, 300.907643815744, -49446.8564513246, 199.598974513981, 52.1065, 52.1065, 52.1065, 141473.69859895, 620.009407352152, 580.90300782197, 735.676914783178, 543.448299451308, -50052.7001770578, 7.36628641684442e-05, ]
  - [26000, -49749.1932403388, 301.439790828524, -49447.7534495102, 199.951959890805, 52.1065, 52.1065, 52.1065, 141473.69859895, 261.8806677795, 371.223218712736, 144.735282392903, 269.683502232859, -50049.616791034, 7.98415319347201e-05, ]
  - [26100, -49751.6966913019, 301.877926611691, -49449.8187646903, 200.242585452552, 52.1065, 52.1065, 52.1065, 141473.69859895, -136.025649657199, -15.1912920258502, -138.67142446989, -254.214232475856, -50056.4420978929, 8.64180886124637e-05, ]
  - [26200, -49752.9837399062, 298.421319212228, -49454.562420694, 197.949738107495, 52.1065, 52.1065, 52.1065, 141473.69859895, -274.632227313596, -252.196279097778, -325.980931568626, -245.719471274384, -50056.1700043275, 9.34104802368714e-05, ]
  - [26300, -49752.5412138165, 299.385990107345, -49453.1552237091, 198.589626542921, 52.1065, 52.1065, 52.1065, 141473.69859895, -230.171420542973, -293.123143571191, -180.384479958882, -217.006638098844, -50054.0664536271, 0.000100837108331577, ]
  - [26400, -49750.7225775966, 303.067753935682, -49447.6548236609, 201.031825335945, 52.1065, 52.1065, 52.1065, 141473.69859895, 185.257306477225, 136.401869307932, 285.588600653292, 133.781449470449, -50050.063808192, 0.000108716831101108, ]
  - [26500, -49751.3232120466, 297.762404598784, -49453.5608074479, 197.51266485981, 52.1065, 52.1065, 52.1065, 141473.69859895, 7.95717916251317, 28.1935289958538, -32.2547002695336, 27.9327087612206, -50041.2328474403, 0.000117068964466276, ]
  - [26600, -49754.8170642083, 303.376781840566, -49451.4402823677, 201.236810666756, 52.1065, 52.1065, 52.1065, 141473.69859895, -465.93847807878, -475.375842009938, -427.124532210182, -495.315060016218, -50042.8554442343, 0.000125913282944476, ]
  - [26700, -49752.8542630579, 300.612759914714, -49452.2415031432, 199.403371226873, 52.1065, 52.1065, 52.1065, 141473.69859895, -275.378798106927, -248.666807262964, -462.643160118622, -114.826426939195, -50047.9956749038, 0.000135270020376872, ]
  - [26800, -49749.7756057046, 301.690679585272, -49448.0849261193, 200.118380184849, 52.1065, 52.1065, 52.1065, 141473.69859895, 212.65269356603, 320.385001065126, 125.750782868442, 191.822296764524, -50055.5109719889, 0.000145159870504403, ]
  - [26900, -49750.9812341838, 301.896196332051, -49449.0850378517, 200.25470417909, 52.1065, 52.1065, 52.1065, 141473.69859895, 124.643170728972, 399.539337484377, -128.052888271191, 102.44306297373, -50056.5988592813, 0.000155603987394582, ]
  - [27000, -49753.3147034684, 302.490490333903, -49450.8242131345, 200.648913085933, 52.1065, 52.1065, 52.1065, 141473.69859895, -194.592781286013, -174.202556411175, -270.044555731225, -139.531231715639, -50053.4515644216, 0.00016662398572099, ]
  - [27100, -49753.2699404764, 303.011585491939, -49450.2583549845, 200.994567512817, 52.1065, 52.1065, 52.1065, 141473.69859895, -301.128959563117, -321.573367703671, -255.455620142085, -326.357890843596, -50054.702612932, 0.000178241940897419, ]
  - [27200, -49749.7296253524, 299.934422504729, -49449.7952028477, 198.953414390647, 52.1065, 52.1065, 52.1065, 141473.69859895, 183.505413908152, 217.041013837883, 285.55318916429, 47.922038722284, -50055.1930897043, 0.000190480389068545, ]
  - [27300, -49750.5436128156, 300.723570615388, -49449.8200422002, 199.476874518246, 52.1065, 52.1065, 52.1065, 141473.69859895, 138.97461236029, 81.4616999603028, 135.605888139983, 199.856248980582, -50063.7472824255, 0.000203362326959055, ]
  - [27400, -49751.6653335413, 304.054258013718, -49447.6110755276, 201.686196224743, 52.1065, 52.1065, 52.1065, 141473.69859895, -24.0056693740653, 93.0237978445159, 3.44091235549048, -168.481718322202, -50059.1463104952, 0.000216911211583103, ]
  - [27500, -49750.4953068401, 300.286285485586, -49450.2090213545, 199.186813214478, 52.1065, 52.1065, 52.1065, 141473.69859895, 74.9344628557444, -111.822529575522, 143.717254050952, 192.908664091804, -50055.2536542661, 0.000231150959815979, ]
  - [27600, -49752.0025399357, 300.146735424468, -49451.8558045112, 199.094246443029, 52.1065, 52.1065, 52.1065, 141473.69859895, -154.745166517409, -83.1324024497592, -180.708728042898, -200.394369059568, -50051.5477957664, 0.00024610594782986, ]
  - [27700, -49749.5294279423, 304.955707988708, -49444.5737199536, 202.284148766932, 52.1065, 52.1065, 52.1065, 141473.69859895, 294.700997215289, 199.826966559477, 350.997503310744, 333.278521775646, -50047.9597700702, 0.000261801010395495, ]
  - [27800, -49751.0896429502, 301.854341125564, -49449.2353018247, 200.22694065608, 52.1065, 52.1065, 52.1065, 141473.69859895, 65.0152622529212, -0.916171010594368, 84.8853395439499, 111.076618225408, -50047.9390637755, 0.000278261440051671, ]
  - [27900, -49753.3975196145, 303.408119955204, -49449.9893996593, 201.257597960377, 52.1065, 52.1065, 52.1065, 141473.69859895, -198.927643828157, -81.0306923714371, -302.762693962814, -212.98954515022, -50052.5110825689, 0.000295512986144304, ]
  - [28000, -49750.3448296381, 302.077766083365, -49448.2670635547, 200.375143579384, 52.1065, 52.1065, 52.1065, 141473.69859895, 216.27409511021, 195.460470248525, 197.61810991427, 255.743705167837, -50049.1858759481, 0.00031358185373696, ]
  - [28100, -49748.7868354434, 300.788327882387, -49447.998507561, 199.519829505767, 52.1065, 52.1065, 52.1065, 141473.69859895, 255.24428372589, 166.601075468913, 303.696024206707, 295.43575150205, -50051.2909546222, 0.000332494702394641, ]
  - [28200, -49753.3778462295, 299.802479071255, -49453.5753671582, 198.865893270607, 52.1065, 52.1065, 52.1065, 141473.69859895, -274.195900072046, -259.364672488877, -189.084933060128, -374.138094667132, -50049.8705659645, 0.000352278644842627, ]
  - [28300, -49751.2431932702, 301.648196626473, -49449.5949966438, 200.090200259264, 52.1065, 52.1065, 52.1065, 141473.69859895, 52.7987733193978, -21.428711330414, 252.472261207562, -72.6472299189541, -50051.5513058975, 0.000372961245502164, ]
  - [28400, -49754.2237954632, 301.435470224669, -49452.7883252386, 199.9490939347, 52.1065, 52.1065, 52.1065, 141473.69859895, -328.299104809383, -522.77717333694, -131.651241230458, -330.46889986075, -50049.542205798, 0.000394570518904788, ]
  - [28500, -49750.6044537272, 302.207673093144, -49448.3967806341, 200.461313892657, 52.1065, 52.1065, 52.1065, 141473.69859895, 273.607133798105, 363.930795008738, 70.9710150369467, 385.91959134863, -50046.2243842083, 0.000417134927987054, ]
  - [28600, -49754.8631476761, 298.312620769112, -49456.550526907, 197.877635925237, 52.1065, 52.1065, 52.1065, 141473.69859895, -461.614164377976, -520.197767754355, -422.98480016528, -441.659925214292, -50046.7518590565, 0.000440683382267422, ]
  - [28700, -49755.6562453722, 297.651866474912, -49458.0043788973, 197.439342374912, 52.1065, 52.1065, 52.1065, 141473.69859895, -500.70358048355, -532.31075915012, -650.970017416751, -318.829964883776, -50047.3170700585, 0.000465245235907057, ]
  - [28800, -49752.8587246824, 301.992863381327, -49450.865861301, 200.318825660552, 52.1065, 52.1065, 52.1065, 141473.69859895, -184.702376253562, -118.681966130611, -211.473643482553, -223.951519147522, -50049.1511399356, 0.000490850285656287, ]
  - [28900, -49751.5909808399, 299.211808855098, -49452.3791719848, 198.474088104324, 52.1065, 52.1065, 52.1065, 141473.69859895, -95.5454284931009, -101.807465446967, -50.9640336709088, -133.864786361428, -50053.5331325836, 0.000517528768688429, ]
  - [29000, -49749.663524968, 303.438072494021, -49446.225452474, 201.277466169626, 52.1065, 52.1065, 52.1065, 141473.69859895, 294.834784255163, 361.432629415175, 269.764125461179, 253.307597889136, -50051.2578489117, 0.00054531136032273, ]
  - [29100, -49751.6439849828, 301.1829222439, -49450.4610627389, 199.781573039126, 52.1065, 52.1065, 52.1065, 141473.69859895, 57.6201041146387, -17.4438353017499, 12.7760673911145, 177.528080254553, -50049.5279399301, 0.000574229171638096, ]
  - [29200, -49747.5239305178, 302.835628963578, -49444.6883015542, 200.877851492664, 52.1065, 52.1065, 52.1065, 141473.69859895, 684.107909450816, 896.178612593099, 638.865063496151, 517.280052263199, -50047.9260933204, 0.000604313746979337, ]
  - [29300, -49752.4847150177, 302.699226046595, -49449.7854889711, 200.787372294445, 52.1065, 52.1065, 52.1065, 141473.69859895, -41.5233955156777, 49.880590376865, 46.2858575437116, -220.73663446761, -50044.1877310078, 0.000635597061357593, ]
  - [29400, -49754.3690441438, 301.927108567967, -49452.4419355759, 200.275208977541, 52.1065, 52.1065, 52.1065, 141473.69859895, -455.72147011874, -393.10791473071, -458.493679663214, -515.562815962297, -50047.6350397774, 0.000668111517746635, ]
  - [29500, -49750.7916830641, 299.630126719982, -49451.1615563442, 198.751567984174, 52.1065, 52.1065, 52.1065, 141473.69859895, 201.089205682451, 172.809769964487, 217.484758877317, 212.973088205547, -50052.183847013, 0.000701889944276683, ]
  - [29600, -49751.9039294938, 300.806954838322, -49451.0969746555, 199.532185194894, 52.1065, 52.1065, 52.1065, 141473.69859895, -121.443377162445, -49.3026738099525, -57.6727463157463, -257.354711361636, -50048.8958791614, 0.000736965591327429, ]
  - [29700, -49751.7198248586, 302.266504227687, -49449.4533206309, 200.500337939954, 52.1065, 52.1065, 52.1065, 141473.69859895, 37.8494885464039, 23.1059568344548, 78.4874684584275, 11.9550403463311, -50052.2053632551, 0.000773372128521878, ]
  - [29800, -49751.5355608058, 302.504814492888, -49449.030746313, 200.658414630686, 52.1065, 52.1065, 52.1065, 141473.69859895, 20.7347634417396, -109.232201792815, 103.861301956783, 67.575190161251, -50054.2390277815, 0.00081114364162266, ]
  - [29900, -49750.6691488114, 304.703704600604, -49445.9654442108, 202.116989112223, 52.1065, 52.1065, 52.1065, 141473.69859895, 305.377918906819, 410.934016863824, 325.902579986235, 179.2971598704, -50056.5295954966, 0.000850314629332433, ]
  - [30000, -49752.5125367738, 302.341022327134, -49450.1715144466, 200.549767512576, 52.1065, 52.1065, 52.1065, 141473.69859895, -73.3936268922302, -46.8846049636799, -63.1401738715284, -110.156101841482, -50055.7607855667, 0.000890920000000001, ]
  - [30100, -49752.2127174187, 301.999841180658, -49450.2128762381, 200.323454195651, 52.1065, 52.1065, 52.1065, 141473.69859895, 27.9187847735707, -19.9573400821495, 129.315285486101, -25.6015910832384, -50057.9002120637, 0.000932995068233718, ]
  - [30200, -49750.8209182852, 303.124635428423, -49447.6962828568, 201.069556140906, 52.1065, 52.1065, 52.1065, 141473.69859895, 186.307097945743, 240.336355178817, 152.765399399295, 165.819539259117, -50048.8266515463, 0.000976575551423828, ]
  - [30300, -49752.8879378643, 298.899395247799, -49453.9885426165, 198.266856959079, 52.1065, 52.1065, 52.1065, 141473.69859895, -27.2677106204697, 2.71720074418377, -82.3997219626287, -2.12061064296335, -50053.274346828, 0.00102169756617526, ]
  - [30400, -49753.7346832304, 299.527375965826, -49454.2073072645, 198.683411041066, 52.1065, 52.1065, 52.1065, 141473.69859895, -233.377428288525, -245.756396036842, -228.024960019215, -226.350928809519, -50058.7728245197, 0.00106839762465251, ]
  - [30500, -49751.7057850614, 305.687916435144, -49446.0178686262, 202.769839503086, 52.1065, 52.1065, 52.1065, 141473.69859895, -169.198647760589, -50.3857694755664, -298.430481841467, -158.779691964732, -50054.3355923363, 0.00111671263083812, ]
  - [30600, -49751.9599758746, 302.001617357731, -49449.9583585169, 200.324632374834, 52.1065, 52.1065, 52.1065, 141473.69859895, -150.781382981674, 41.860249414942, -317.908209502094, -176.296188857867, -50052.5729149981, 0.00116667987670637, ]
  - [30700, -49749.3998239483, 298.575003548284, -49450.8248204, 198.051680469233, 52.1065, 52.1065, 52.1065, 141473.69859895, 150.890123995612, 155.51601299385, 66.0239770138116, 231.130381979176, -50054.6474462755, 0.00121833703831365, ]
  - [30800, -49748.2903696085, 302.860084088087, -49445.4302855204, 200.894073140316, 52.1065, 52.1065, 52.1065, 141473.69859895, 612.302218338642, 597.644205974017, 670.687623548316, 568.574825493595, -50051.5500897322, 0.00127172217180712, ]
  - [30900, -49752.3226336221, 299.342794591461, -49452.9798390306, 198.560973961801, 52.1065, 52.1065, 52.1065, 141473.69859895, -68.4319209986918, -27.7969474958932, -48.9467108184258, -128.552104681756, -50051.4424560492, 0.00132687370935312, ]
  - [31000, -49752.9296719833, 299.339741792512, -49453.5899301908, 198.558948969906, 52.1065, 52.1065, 52.1065, 141473.69859895, -427.482390539277, -304.492465572802, -488.881182000487, -489.073524044541, -50053.6412503703, 0.00138383045498687, ]
  - [31100, -49750.9841779993, 300.399667548777, -49450.5845104505, 199.262022149865, 52.1065, 52.1065, 52.1065, 141473.69859895, 8.06896975016459, -17.476813957776, -80.1952768840268, 121.879000092297, -50059.3342781442, 0.00144263158038501, ]
  - [31200, -49748.424508264, 304.067590118857, -49444.3569181452, 201.695039717318, 52.1065, 52.1065, 52.1065, 141473.69859895, 708.54954308017, 848.200048490703, 600.469616054237, 676.97896469557, -50054.5334445038, 0.00150331662056234, ]
  - [31300, -49751.2237427531, 304.599999005048, -49446.623743748, 202.048198800811, 52.1065, 52.1065, 52.1065, 141473.69859895, 15.3904442202882, 40.034776583068, -73.1238677373787, 79.2604238151742, -50057.2930221003, 0.00156592546949443, ]
  - [31400, -49753.4717904048, 301.221601875941, -49452.2501885289, 199.807230130425, 52.1065, 52.1065, 52.1065, 141473.69859895, -249.282524291266, -222.316821936452, -202.111793785512, -323.418957151834, -50055.7896738281, 0.00163049837566735, ]
  - [31500, -49750.0377123103, 300.816917937575, -49449.2207943727, 199.538793948227, 52.1065, 52.1065, 52.1065, 141473.69859895, 217.652761870422, 299.518305947421, 80.3432810423885, 273.096698621455, -50054.7905380782, 0.00169707593755625, ]
  - [31600, -49748.4083936193, 299.102276836534, -49449.3061167828, 198.401432992262, 52.1065, 52.1065, 52.1065, 141473.69859895, 507.018656472505, 600.641381330001, 519.510653691702, 400.903934395812, -50044.0100894609, 0.00176569909903396, ]
  - [31700, -49747.7526323169, 303.160565374313, -49444.5920669426, 201.093389302015, 52.1065, 52.1065, 52.1065, 141473.69859895, 539.332027260331, 478.593855913424, 564.45767170954, 574.944554158029, -50047.8656767702, 0.0018364091447113, ]
  - [31800, -49748.9431778665, 299.254480823861, -49449.6886970427, 198.502393404574, 52.1065, 52.1065, 52.1065, 141473.69859895, 382.985463029499, 354.680041773411, 348.124706380135, 446.151640934951, -50052.0076380071, 0.00190924769521034, ]
  - [31900, -49748.4921184211, 301.891400673765, -49446.6007177474, 200.251523108433, 52.1065, 52.1065, 52.1065, 141473.69859895, 513.95616063838, 354.767018883, 675.997786923199, 511.103676108942, -50047.6901198136, 0.00198425670237219, ]
[...]
  - [232500, -49749.2045603208, 300.557280974416, -49448.6472793464, 199.366570767269, 52.1065, 52.1065, 52.1065, 141473.69859895, 365.037105602561, 312.391291353912, 524.102878559885, 258.617146893888, -50053.7696748022, 0.000231150959815978, ]
  - [232600, -49747.3389228644, 302.789668215115, -49444.5492546493, 200.84736466905, 52.1065, 52.1065, 52.1065, 141473.69859895, 626.142514848129, 648.826617419398, 615.309618886162, 614.29130823883, -50052.5451225037, 0.000216911211583102, ]
  - [232700, -49744.043679958, 302.846728241139, -49441.1969517169, 200.885213899252, 52.1065, 52.1065, 52.1065, 141473.69859895, 1158.33082290648, 1268.56611925757, 996.534671536325, 1209.89167792553, -50054.9274336448, 0.000203362326959055, ]
  - [232800, -49748.9062096713, 304.022196021701, -49444.8840136496, 201.664928766575, 52.1065, 52.1065, 52.1065, 141473.69859895, 361.364100677714, 219.768223533783, 376.858474786472, 487.465603712886, -50053.0172429067, 0.000190480389068545, ]
  - [232900, -49751.3459040318, 302.512955322466, -49448.8329487093, 200.663814630549, 52.1065, 52.1065, 52.1065, 141473.69859895, 71.3503951621678, -31.3905120333511, 161.384321316322, 84.0573762035328, -50055.9234889465, 0.000178241940897418, ]
  - [233000, -49749.589791898, 301.19040947866, -49448.3993824194, 199.786539494484, 52.1065, 52.1065, 52.1065, 141473.69859895, 247.900494892669, 184.148886747568, 335.386632183068, 224.165965747368, -50056.7801216315, 0.000166623985720989, ]
  - [233100, -49750.3650497513, 302.156707573173, -49448.2083421782, 200.427507288768, 52.1065, 52.1065, 52.1065, 141473.69859895, 98.8426388202443, 154.350818993515, 84.2043347440418, 57.9727627231774, -50058.3975193654, 0.000155603987394581, ]
  - [233200, -49755.27957521, 301.586033132836, -49453.6935420772, 200.048965781387, 52.1065, 52.1065, 52.1065, 141473.69859895, -624.668186613196, -608.711058809126, -561.391118045253, -703.902382985209, -50057.9009937246, 0.000145159870504403, ]
  - [233300, -49751.0724032604, 297.871870558208, -49453.2005327022, 197.585276153322, 52.1065, 52.1065, 52.1065, 141473.69859895, 27.8071003109971, -29.4000235336414, 40.1851953419539, 72.6361291246787, -50053.822489483, 0.000135270020376871, ]
  - [233400, -49749.4241309363, 302.103265347998, -49447.3208655883, 200.392057829241, 52.1065, 52.1065, 52.1065, 141473.69859895, 345.4437496944, 336.556315308718, 260.81109108939, 438.963842685093, -50052.8179514482, 0.000125913282944476, ]
  - [233500, -49750.2388362723, 301.909753300507, -49448.3290829718, 200.263696828685, 52.1065, 52.1065, 52.1065, 141473.69859895, -79.5868639887554, -56.3964264846648, -119.725371146393, -62.6387943352095, -50055.26159188, 0.000117068964466275, ]
  - [233600, -49752.7181644799, 301.375024079116, -49451.3431404008, 199.908998613382, 52.1065, 52.1065, 52.1065, 141473.69859895, -208.791647772497, -288.557438124329, -155.013255409104, -182.804249784059, -50050.1321385534, 0.000108716831101108, ]
  - [233700, -49753.5782385071, 300.312150896476, -49453.2660876106, 199.203970337586, 52.1065, 52.1065, 52.1065, 141473.69859895, -282.157244805303, -110.777087278981, -369.128502142143, -366.566144994786, -50049.423017988, 0.000100837108331576, ]
  - [233800, -49752.7667415497, 298.631361377308, -49454.1353801724, 198.089063915982, 52.1065, 52.1065, 52.1065, 141473.69859895, -199.397852613846, -198.280390855571, -227.283922705053, -172.629244280916, -50050.8012748758, 9.34104802368709e-05, ]
  - [233900, -49750.1420645713, 301.74098505892, -49448.4010795123, 200.151748964801, 52.1065, 52.1065, 52.1065, 141473.69859895, 263.459877917689, 176.231088535802, 270.065073274426, 344.083471942838, -50048.9265698526, 8.64180886124633e-05, ]
  - [234000, -49748.741002114, 299.824508351091, -49448.9164937629, 198.880505799584, 52.1065, 52.1065, 52.1065, 141473.69859895, 321.154866319118, 228.975608667517, 327.935073825541, 406.553916464296, -50049.0771472321, 7.98415319347196e-05, ]
  - [234100, -49751.6832491495, 300.310030126911, -49451.3732190226, 199.202563582261, 52.1065, 52.1065, 52.1065, 141473.69859895, -43.150818210832, 74.9487808746728, 48.267559947346, -252.668795454515, -50050.8410466571, 7.36628641684439e-05, ]
  - [234200, -49754.6590347263, 301.685834022097, -49452.9732007042, 200.11516601113, 52.1065, 52.1065, 52.1065, 141473.69859895, -424.313822927418, -463.152074225592, -474.125745907507, -335.663648649156, -50060.247610102, 6.78645934153684e-05, ]
  - [234300, -49753.5763897824, 302.287362402779, -49451.2890273796, 200.514173648166, 52.1065, 52.1065, 52.1065, 141473.69859895, -334.84695594119, -229.080006095014, -331.726205797445, -443.734655931112, -50061.8665363437, 6.24296804015905e-05, ]
  - [234400, -49749.3810016702, 301.226636472564, -49448.1543651977, 199.810569694387, 52.1065, 52.1065, 52.1065, 141473.69859895, 408.028632209331, 417.41032946162, 444.91043391545, 361.765133250924, -50055.2545456434, 5.73415368019447e-05, ]
  - [234500, -49748.075379545, 297.875201256482, -49450.2001782885, 197.587485482243, 52.1065, 52.1065, 52.1065, 141473.69859895, 416.194232186674, 462.43926377709, 499.599264348098, 286.544168434835, -50052.0075800326, 5.25840233992875e-05, ]
  - [234600, -49755.4853971398, 299.208773568215, -49456.2766235716, 198.472074728587, 52.1065, 52.1065, 52.1065, 141473.69859895, -647.879910448184, -637.842136663339, -695.310673429374, -610.48692125184, -50054.3448838363, 4.81414480766631e-05, ]
  - [234700, -49753.3047273573, 301.379037390257, -49451.925689967, 199.911660735148, 52.1065, 52.1065, 52.1065, 141473.69859895, -457.102094546144, -437.979733281148, -409.777327418926, -523.549222938359, -50052.4084902942, 4.39985636403036e-05, ]
  - [234800, -49749.6280103278, 304.337242642283, -49445.2907676855, 201.873906450208, 52.1065, 52.1065, 52.1065, 141473.69859895, 255.445249516212, 307.579156105679, 175.266080286687, 283.490512156273, -50054.312210974, 4.01405654714093e-05, ]
  - [234900, -49748.468504695, 306.473367213996, -49441.995137481, 203.290847105292, 52.1065, 52.1065, 52.1065, 141473.69859895, 471.10212310286, 422.416306202895, 681.811609223305, 309.078453882381, -50057.3784562411, 3.65530890046418e-05, ]
  - [235000, -49752.4819203421, 305.545296668008, -49446.9366236741, 202.675236524893, 52.1065, 52.1065, 52.1065, 141473.69859895, -278.321132626941, -274.722046836539, -275.364098834903, -284.87725220938, -50060.1437692268, 3.32222070312498e-05, ]
  - [235100, -49753.2313630055, 299.264031306945, -49453.9673316986, 198.508728460093, 52.1065, 52.1065, 52.1065, 141473.69859895, -422.087703417906, -465.446795804886, -488.81411814941, -312.002196299422, -50054.1802932723, 3.01344268247407e-05, ]
  - [235200, -49751.2008186535, 300.517562599207, -49450.6832560543, 199.340224653689, 52.1065, 52.1065, 52.1065, 141473.69859895, 84.1860653906818, 179.555355776834, -15.3596306842219, 88.362471079433, -50051.7053945836, 2.72766870869938e-05, ]
  - [235300, -49752.2448443467, 299.453439797645, -49452.7914045491, 198.634367476865, 52.1065, 52.1065, 52.1065, 141473.69859895, -141.328163909335, -131.374052655036, -96.5670332293687, -196.043405843599, -50053.8873626828, 2.46363547127045e-05, ]
  - [235400, -49754.6655505207, 299.474897439611, -49455.190653081, 198.648600825269, 52.1065, 52.1065, 52.1065, 141473.69859895, -362.082102840463, -426.514320163777, -332.884983137589, -326.847005220024, -50054.2454820189, 2.22012213700348e-05, ]
  - [235500, -49753.7573596862, 302.367267980757, -49451.3900917054, 200.567176859451, 52.1065, 52.1065, 52.1065, 141473.69859895, -601.586399398932, -543.765862232422, -659.044300468329, -601.949035496046, -50059.5790966542, 1.99594998953343e-05, ]
  - [235600, -49752.5122661078, 297.462284381869, -49455.049981726, 197.313588203706, 52.1065, 52.1065, 52.1065, 141473.69859895, -154.666329307098, -227.633446192444, -60.2348948552386, -176.130646873611, -50059.7949509058, 1.78998204997852e-05, ]
  - [235700, -49757.0222997464, 299.466280430879, -49457.5560193155, 198.642884964799, 52.1065, 52.1065, 52.1065, 141473.69859895, -806.037433486939, -692.816809328235, -822.066658336634, -903.228832795946, -50053.1635305978, 1.6011226785813e-05, ]
  - [235800, -49756.9233157567, 298.201747879361, -49458.7215678773, 197.804091382416, 52.1065, 52.1065, 52.1065, 141473.69859895, -825.034400886313, -862.571068806695, -791.288260220476, -821.24387363177, -50048.0932709099, 1.42831715710918e-05, ]
  - [235900, -49748.6424008508, 302.100151175139, -49446.5422496757, 200.389992126618, 52.1065, 52.1065, 52.1065, 141473.69859895, 577.756073616347, 537.056934989848, 568.227396264263, 627.983889594931, -50049.4111775693, 1.27055125179639e-05, ]
  - [236000, -49747.2461170711, 298.020423615558, -49449.2256934555, 197.683814819646, 52.1065, 52.1065, 52.1065, 141473.69859895, 695.576419848692, 553.184516157685, 689.134839211124, 844.409904177268, -50049.866412318, 1.12685075660799e-05, ]
  - [236100, -49750.5181423068, 301.978125455971, -49448.5400168509, 200.30904965503, 52.1065, 52.1065, 52.1065, 141473.69859895, 263.637053558473, 317.754947659554, 258.573043145759, 214.583169870107, -50049.1001981739, 9.96281016605479e-06, ]
  - [236200, -49753.8984235204, 300.704535165252, -49453.1938883551, 199.464247865501, 52.1065, 52.1065, 52.1065, 141473.69859895, -223.811074465196, -258.147912079924, -200.097769726978, -213.187541588685, -50041.7071651297, 8.77946431192305e-06, ]
  - [236300, -49753.6244220259, 302.177558930079, -49451.4468630959, 200.44133847432, 52.1065, 52.1065, 52.1065, 141473.69859895, -326.967147487506, -391.92038475019, -340.123971843332, -248.857085868995, -50046.2382087313, 7.70989937016554e-06, ]
  - [236400, -49751.5922923338, 302.440543908386, -49449.1517484254, 200.61578247088, 52.1065, 52.1065, 52.1065, 141473.69859895, 79.7437515955355, 3.97843875381287, 54.2153424708446, 181.037473561949, -50050.908266793, 6.74592470306788e-06, ]
  - [236500, -49753.8112313206, 299.405125216673, -49454.4061061039, 198.602319301904, 52.1065, 52.1065, 52.1065, 141473.69859895, -291.320633388564, -210.198792513185, -395.516702175808, -268.246405476701, -50054.7968989954, 5.87972408415909e-06, ]
  - [236600, -49753.9146311581, 304.694042061384, -49449.2205890967, 202.110579727286, 52.1065, 52.1065, 52.1065, 141473.69859895, -168.848925329613, -130.7257654709, -13.2608926611272, -362.560117856813, -50049.9216255488, 5.10384990346715e-06, ]
  - [236700, -49752.8114285658, 301.116793199224, -49451.6946353666, 199.737708119859, 52.1065, 52.1065, 52.1065, 141473.69859895, -238.808047138869, -316.024867180278, -302.372281614474, -98.0269926218545, -50057.7682291526, 4.41121716031669e-06, ]
  - [236800, -49751.6432756231, 302.090051819576, -49449.5532238035, 200.383292991335, 52.1065, 52.1065, 52.1065, 141473.69859895, -23.5457196333286, -25.0300231743416, -34.8211363038794, -10.7859994217653, -50052.0206545495, 3.79509724138197e-06, ]
  - [236900, -49749.75357389, 301.645543991196, -49448.1080298988, 200.088440705156, 52.1065, 52.1065, 52.1065, 141473.69859895, 397.149369236311, 429.444542588511, 339.357737808958, 422.645827311467, -50046.6485874223, 3.24911148169665e-06, ]
  - [237000, -49753.8599572207, 302.727087723565, -49451.1328694971, 200.805853586847, 52.1065, 52.1065, 52.1065, 141473.69859895, -245.884440154039, -279.305492854483, -256.616713534064, -201.73111407357, -50054.6400320846, 2.76722450630996e-06, ]
  - [237100, -49754.3972089174, 303.946524342492, -49450.4506845749, 201.614733997913, 52.1065, 52.1065, 52.1065, 141473.69859895, -587.227139219688, -477.23505524162, -598.663256370577, -685.783106046866, -50056.6107018153, 2.34373735026696e-06, ]
  - [237200, -49754.830347782, 302.823857484427, -49452.0064902975, 200.870043199271, 52.1065, 52.1065, 52.1065, 141473.69859895, -593.929007792126, -585.184458253783, -634.143910294568, -562.458654828026, -50058.5763780076, 1.97328035457889e-06, ]
  - [237300, -49751.7303340021, 302.176169058289, -49449.5541649438, 200.440416540332, 52.1065, 52.1065, 52.1065, 141473.69859895, 79.1050024911891, -5.2824525014009, 134.3914353843, 108.206024590668, -50052.1785779822, 1.65080583583743e-06, ]
  - [237400, -49752.7026350204, 299.948883284754, -49452.7537517356, 198.963006559284, 52.1065, 52.1065, 52.1065, 141473.69859895, -356.967688896494, -442.429150068298, -239.877529041023, -388.59638758016, -50053.9207507866, 1.37158052711493e-06, ]
  - [237500, -49750.3162947594, 301.655807846469, -49448.6604869129, 200.095248956887, 52.1065, 52.1065, 52.1065, 141473.69859895, 274.391731461058, 278.550954263013, 220.809479142448, 323.814760977715, -50049.998051168, 1.13117778778074e-06, ]
  - [237600, -49751.5242361416, 302.107373330803, -49449.4168628108, 200.394782748903, 52.1065, 52.1065, 52.1065, 141473.69859895, 41.0351985264697, 73.7926139489605, -40.0299643328634, 89.3429459633126, -50049.9650261236, 9.25469579851505e-07, ]
  - [237700, -49752.1361110557, 303.090742462366, -49449.0453685933, 201.047074155462, 52.1065, 52.1065, 52.1065, 141473.69859895, -195.163343285308, -174.027877486309, -200.792628542187, -210.669523827429, -50055.4437150831, 7.50618208481688e-07, ]
  - [237800, -49752.5052094485, 302.543618447371, -49449.9615910011, 200.684154187926, 52.1065, 52.1065, 52.1065, 141473.69859895, -258.657414507194, -220.880799898838, -223.857453246158, -331.233990376587, -50048.8697856842, 6.03067824188189e-07, ]
  - [237900, -49749.3823085854, 300.460412387211, -49448.9218961982, 199.302315601054, 52.1065, 52.1065, 52.1065, 141473.69859895, 244.918954594383, 154.849832477894, 368.67710497967, 211.229926325584, -50051.4648706053, 4.79535684391034e-07, ]
  - [238000, -49749.9015670816, 298.581687694384, -49451.3198793872, 198.056114217377, 52.1065, 52.1065, 52.1065, 141473.69859895, 139.767913533514, 10.2392381869731, 13.4973117217988, 395.567190691769, -50051.6972831604, 3.77003171839991e-07, ]
  - [238100, -49750.6468540098, 302.829355721404, -49447.8174982884, 200.873690306564, 52.1065, 52.1065, 52.1065, 141473.69859895, 108.570088127528, 44.3484981057214, 142.95806413958, 138.403702137283, -50050.0993132805, 2.92706567484834e-07, ]
  - [238200, -49750.9058764288, 300.184852615493, -49450.7210238133, 199.11953045424, 52.1065, 52.1065, 52.1065, 141473.69859895, 213.139283204723, 213.277867792281, 153.931268494942, 272.208713326948, -50047.90143921, 2.24127575334843e-07, ]
  - [238300, -49752.5898352434, 297.614584513006, -49454.9752507304, 197.414612390422, 52.1065, 52.1065, 52.1065, 141473.69859895, -226.641521842646, -172.829454139184, -228.554251994109, -278.540859394645, -50047.4866755318, 1.68983596840973e-07, ]
  - [238400, -49748.4630898519, 297.222241359859, -49451.240848492, 197.154362135451, 52.1065, 52.1065, 52.1065, 141473.69859895, 569.782394983054, 673.709712922275, 504.932923469787, 530.704548557099, -50046.158994715, 1.25217752321901e-07, ]
  - [238500, -49752.5188164756, 298.795607392359, -49453.7232090833, 198.198012082791, 52.1065, 52.1065, 52.1065, 141473.69859895, -402.784332078218, -432.311600197111, -430.874347765619, -345.167048271924, -50051.0647711242, 9.09886469429854e-08, ]
  - [238600, -49751.3816543092, 303.086825002862, -49448.2948293064, 201.044475614296, 52.1065, 52.1065, 52.1065, 141473.69859895, -23.452306019893, -22.2905636165876, 104.90859298766, -152.974947430751, -50055.0199157033, 6.46598787448784e-08, ]
  - [238700, -49751.2609816414, 302.762246694278, -49448.4987349471, 200.829175342354, 52.1065, 52.1065, 52.1065, 141473.69859895, -86.322530985547, -210.384976501636, 11.5331545817169, -60.1157710367214, -50055.7989416931, 4.47892862063161e-08, ]
  - [238800, -49751.9663092615, 298.574220318593, -49453.3920889429, 198.05116093493, 52.1065, 52.1065, 52.1065, 141473.69859895, -100.288018759199, -162.420648526406, 2.24328612285626, -140.686693874045, -50046.1705259292, 3.01179328132691e-08, ]
  - [238900, -49752.909854862, 299.136260355007, -49453.773594507, 198.42397504321, 52.1065, 52.1065, 52.1065, 141473.69859895, -148.364069609158, -225.866701094792, -15.9113543843718, -203.314153348309, -50047.3407950333, 1.95588260943479e-08, ]
  - [239000, -49749.6909494356, 298.603158531913, -49451.0877909037, 198.070356318701, 52.1065, 52.1065, 52.1065, 141473.69859895, 346.464226864244, 401.566615547941, 211.129498512861, 426.696566531929, -50053.3316205219, 1.21853685699994e-08, ]
  - [239100, -49750.1261654501, 303.669299932854, -49446.4568655173, 201.430844658406, 52.1065, 52.1065, 52.1065, 141473.69859895, 182.991839960965, 158.859611076155, 233.695957509597, 156.419951297143, -50056.6961941718, 7.21953805066191e-09, ]
  - [239200, -49749.5271559849, 300.084713347128, -49449.4424426378, 199.05310576984, 52.1065, 52.1065, 52.1065, 141473.69859895, 196.19557326871, 234.083303041577, 163.983407898147, 190.520008866406, -50049.4255550325, 4.01979470665194e-09, ]
  - [239300, -49750.3830034547, 303.228948384923, -49447.1540550697, 201.138749328828, 52.1065, 52.1065, 52.1065, 141473.69859895, 202.622562570138, 246.07391136821, 187.235806672405, 174.557969669801, -50049.1904809741, 2.06871232013228e-09, ]
  - [239400, -49749.7792124949, 301.544953452641, -49448.2342590423, 200.021716682839, 52.1065, 52.1065, 52.1065, 141473.69859895, 223.546879917517, 322.158330115129, 280.537454085949, 67.9448555514746, -50045.6501616777, 9.60331117066315e-10, ]
  - [239500, -49752.7078836181, 300.86079751013, -49451.847086108, 199.567900279901, 52.1065, 52.1065, 52.1065, 141473.69859895, -277.53243005035, -251.319745331966, -229.985666027949, -351.291878791136, -50048.2758416052, 3.87229564589803e-10, ]
  - [239600, -49751.8180241473, 302.736078946291, -49449.081945201, 200.811817672083, 52.1065, 52.1065, 52.1065, 141473.69859895, -192.244086569825, -286.197609330272, -100.901828760052, -189.632821619152, -50048.7619228791, 1.27312506734493e-10, ]
  - [239700, -49752.9195735885, 300.963156656233, -49451.9564169323, 199.635797460362, 52.1065, 52.1065, 52.1065, 141473.69859895, 16.4488060068015, -42.8662761730789, 73.4784782634695, 18.7342159300145, -50046.3816514547, 3.03129989146573e-11, ]
  - [239800, -49750.557245329, 302.516326973949, -49448.0409183551, 200.666051124677, 52.1065, 52.1065, 52.1065, 141473.69859895, 57.4680001224778, 17.3313825601393, 81.2955126821788, 73.7771051251156, -50053.0440057422, 4.00518903939475e-12, ]
  - [239900, -49749.3715210402, 303.37172258966, -49445.9997984505, 201.23345474904, 52.1065, 52.1065, 52.1065, 141473.69859895, 419.794747549683, 338.059008256835, 508.831168986564, 412.494065405652, -50046.287629069, 1.25580539685001e-13, ]
  - [240000, -49751.3204100637, 301.157202835054, -49450.1632072287, 199.764512762539, 52.1065, 52.1065, 52.1065, 141473.69859895, -59.2530854820682, -158.869895891433, -75.1340046422629, 56.2446440874918, -50050.6443909812, 0, ]
...
Loop time of 119.067 on 64 procs for 100000 steps with 11664 atoms

Performance: 72.564 ns/day, 0.331 hours/ns, 839.862 timesteps/s, 9.796 Matom-step/s
67.0% CPU use with 64 MPI tasks x 1 OpenMP threads

MPI task timing breakdown:
Section |  min time  |  avg time  |  max time  |%varavg| %total
---------------------------------------------------------------
Pair    | 52.792     | 54.502     | 56.194     |  11.7 | 45.77
Neigh   | 0          | 0          | 0          |   0.0 |  0.00
Comm    | 18.088     | 19.765     | 21.962     |  20.7 | 16.60
Output  | 0.3844     | 0.42086    | 0.42234    |   0.7 |  0.35
Modify  | 14.023     | 15.3       | 42.814     |  88.9 | 12.85
Other   |            | 29.08      |            |       | 24.42

Nlocal:         182.25 ave         194 max         169 min
Histogram: 3 0 10 7 9 8 9 9 4 5
Nghost:        1275.75 ave        1289 max        1264 min
Histogram: 5 2 11 7 10 8 8 9 1 3
Neighs:        8240.73 ave        8791 max        7631 min
Histogram: 3 1 10 7 9 8 8 8 7 3

Total # of neighbors = 527407
Ave neighs/atom = 45.21665
Neighbor list builds = 0
Dangerous builds = 0
#------------------------------------------------------------------------------#
Total wall time: 0:04:27
