LAMMPS (2 Aug 2023)
OMP_NUM_THREADS environment is not set. Defaulting to 1 thread. (src/comm.cpp:98)
  using 1 OpenMP thread(s) per MPI task
#--------------------------- Simulation variables -----------------------------#
# Initalizes the random number generator.
variable RND equal round(random(0,999,${RANDOM}))
variable RND equal round(random(0,999,1))

# Simulation control parameters.
variable t_eq equal 20000 # Equilibration time.
variable t equal 100000 # Switching time.

#---------------------------- Atomic setup ------------------------------------#
units            metal
# Create atoms.
lattice          bcc ${a}
lattice          bcc 2.9635777777777776
Lattice spacing in x,y,z = 2.9635778 2.9635778 2.9635778
region           sim_box block 0 18 0 18 0 18
create_box       1 sim_box
Created orthogonal box = (0 0 0) to (53.3444 53.3444 53.3444)
  4 by 4 by 4 MPI processor grid
create_atoms     1 box
Created 11664 atoms
  using lattice units in orthogonal box = (0 0 0) to (53.3444 53.3444 53.3444)
  create_atoms CPU = 0.002 seconds

# Define interatomic potential.
pair_style       eam
pair_coeff       * * ../Fe.eam
#----------------------------- Run simulation ---------------------------------#
# Initial temperature to accelerate equilibration.
velocity all create ${T} ${RND} mom yes rot yes dist gaussian
velocity all create 1300 ${RND} mom yes rot yes dist gaussian
velocity all create 1300 80 mom yes rot yes dist gaussian

# Integrator, Frenkel-Ladd modifier, and thermostat.
fix fe all nve
fix fti all ti/spring ${k} ${t} ${t_eq} function 2
fix fti all ti/spring 2.8375210842451875 ${t} ${t_eq} function 2
fix fti all ti/spring 2.8375210842451875 100000 ${t_eq} function 2
fix fti all ti/spring 2.8375210842451875 100000 20000 function 2
fix ft all langevin ${T} ${T} 0.1 ${RND} zero yes
fix ft all langevin 1300 ${T} 0.1 ${RND} zero yes
fix ft all langevin 1300 1300 0.1 ${RND} zero yes
fix ft all langevin 1300 1300 0.1 178 zero yes
compute tcom all temp/com
fix_modify ft temp tcom

# Setup thermo output.
variable dE equal pe-f_fti
variable lambda equal f_fti[1]

thermo_style custom step pe ke etotal temp lx ly lz vol press pxx pyy pzz v_dE v_lambda
thermo 100
thermo_modify line yaml
thermo_modify flush yes

# Forward integration.
run ${t_eq}
run 20000

CITE-CITE-CITE-CITE-CITE-CITE-CITE-CITE-CITE-CITE-CITE-CITE-CITE

Your simulation uses code contributions which should be cited:

- ti/spring command: doi:10.1016/j.commatsci.2015.10.050

@article{freitas2016,
  author={Freitas, Rodrigo and Asta, Mark and de Koning, Maurice},
  title={Nonequilibrium Free-Energy Calculation of Solids Using {LAMMPS}},
  journal={Computational Materials Science},
  volume={112},
  pages={333--341},
  year={2016},
  publisher={Elsevier}
}

CITE-CITE-CITE-CITE-CITE-CITE-CITE-CITE-CITE-CITE-CITE-CITE-CITE

Neighbor list info ...
  update: every = 1 steps, delay = 0 steps, check = yes
  max neighbors/atom: 2000, page size: 100000
  master list distance cutoff = 6.409104
  ghost atom cutoff = 6.409104
  binsize = 3.204552, bins = 17 17 17
  1 neighbor lists, perpetual/occasional/extra = 1 0 0
  (1) pair eam, perpetual
      attributes: half, newton on
      pair build: half/bin/atomonly/newton
      stencil: half/bin/3d
      bin: standard
Per MPI rank memory allocation (min/avg/max) = 3.736 | 3.736 | 3.736 Mbytes
---
keywords: ['Step', 'PotEng', 'KinEng', 'TotEng', 'Temp', 'Lx', 'Ly', 'Lz', 'Volume', 'Press', 'Pxx', 'Pyy', 'Pzz', 'v_dE', 'v_lambda', ]
data:
  - [0, -49373.9339819379, 1959.8293924755, -47414.1045894624, 1300, 53.3444, 53.3444, 53.3444, 151798.158855992, -142128.808253937, -141979.624152362, -142223.772071058, -142183.028538389, -49373.9339819379, 0, ]
  - [100, -48186.5320189941, 1646.84420085233, -46539.6878181418, 1092.3897097001, 53.3444, 53.3444, 53.3444, 151798.158855992, -19782.7650159535, -20787.1892673019, -19086.8619823616, -19474.243798197, -48186.5320189941, 0, ]
  - [200, -48069.331675954, 1858.96043952775, -46210.3712364263, 1233.09129900004, 53.3444, 53.3444, 53.3444, 151798.158855992, -7757.79825047206, -7392.60508185268, -8423.73403588057, -7457.05563368292, -48069.331675954, 0, ]
  - [300, -48011.4630903976, 1916.690466998, -46094.7726233996, 1271.38495660078, 53.3444, 53.3444, 53.3444, 151798.158855992, -1419.2384459747, -2590.69135293541, -1322.26751652639, -344.756468462315, -48011.4630903976, 0, ]
  - [400, -48002.2940216218, 1938.17220761134, -46064.1218140105, 1285.63429019307, 53.3444, 53.3444, 53.3444, 151798.158855992, -1577.01456215536, -1726.42878191467, -1391.62829528892, -1612.98660926249, -48002.2940216218, 0, ]
  - [500, -47979.8945432166, 1931.48123919603, -46048.4133040206, 1281.19601665084, 53.3444, 53.3444, 53.3444, 151798.158855992, 564.647922480356, 284.447627102052, 634.221141595907, 775.274998743111, -47979.8945432166, 0, ]
  - [600, -47976.1746614365, 1974.74233713556, -46001.4323243009, 1309.89209985957, 53.3444, 53.3444, 53.3444, 151798.158855992, 1850.39957571842, 1474.22956773229, 2186.98697653251, 1889.98218289047, -47976.1746614365, 0, ]
  - [700, -47972.3458600306, 1953.46774292674, -46018.8781171038, 1295.78017125106, 53.3444, 53.3444, 53.3444, 151798.158855992, 1496.18628870996, 481.793195933659, 1477.57722863863, 2529.18844155756, -47972.3458600306, 0, ]
  - [800, -47979.8178287526, 1953.56053594174, -46026.2572928108, 1295.84172299631, 53.3444, 53.3444, 53.3444, 151798.158855992, 679.09526638855, 1340.31555090443, 398.076355736603, 298.893892524625, -47979.8178287526, 0, ]
  - [900, -47995.9084613286, 1951.46183628947, -46044.4466250391, 1294.44960715275, 53.3444, 53.3444, 53.3444, 151798.158855992, -392.723069293812, -598.537381797756, -251.375987961315, -328.255838122366, -47995.9084613286, 0, ]
  - [1000, -47982.5621414692, 1961.00713897247, -46021.5550024967, 1300.78122639243, 53.3444, 53.3444, 53.3444, 151798.158855992, 194.6429522083, -100.901891166088, 944.958020088112, -260.127272297121, -47982.5621414692, 0, ]
  - [1100, -47993.9734751912, 1946.74639207274, -46047.2270831185, 1291.32174433709, 53.3444, 53.3444, 53.3444, 151798.158855992, -547.098212575207, -400.348201321433, -1126.48436444563, -114.462071958559, -47993.9734751912, 0, ]
  - [1200, -47987.4178768786, 1953.77711491038, -46033.6407619682, 1295.98538481724, 53.3444, 53.3444, 53.3444, 151798.158855992, 388.741406218352, 1566.75799280746, -457.752933026516, 57.2191588741165, -47987.4178768786, 0, ]
  - [1300, -47998.9681491985, 1956.85813921573, -46042.1100099827, 1298.02909924072, 53.3444, 53.3444, 53.3444, 151798.158855992, -842.792513050908, -1311.9217685465, -262.455102861042, -954.000667745171, -47998.9681491985, 0, ]
  - [1400, -48014.3558488277, 1968.44456953427, -46045.9112792934, 1305.71464547853, 53.3444, 53.3444, 53.3444, 151798.158855992, -2221.53069906325, -2539.44104006854, -1293.08558288535, -2832.06547423586, -48014.3558488277, 0, ]
  - [1500, -48001.74671513, 1959.2068215218, -46042.5398936082, 1299.58703433936, 53.3444, 53.3444, 53.3444, 151798.158855992, -606.354054319179, -333.259379044139, -339.600018894906, -1146.20276501849, -48001.74671513, 0, ]
  - [1600, -47985.1873383736, 1975.63760201223, -46009.5497363613, 1310.4859496835, 53.3444, 53.3444, 53.3444, 151798.158855992, 995.92064047568, 1496.0293632782, -161.467517059007, 1653.20007520785, -47985.1873383736, 0, ]
  - [1700, -47981.3289448345, 1955.30390041978, -46026.0250444147, 1296.99813683016, 53.3444, 53.3444, 53.3444, 151798.158855992, 367.300765603171, 659.943176114561, -789.221042707848, 1231.1801634028, -47981.3289448345, 0, ]
  - [1800, -47980.5522313145, 1937.18137630474, -46043.3708550097, 1284.97704895384, 53.3444, 53.3444, 53.3444, 151798.158855992, 163.457822254551, 316.486750912121, 9.74002808172639, 164.146687769811, -47980.5522313145, 0, ]
  - [1900, -47984.3620537727, 1953.75035608028, -46030.6116976924, 1295.96763506858, 53.3444, 53.3444, 53.3444, 151798.158855992, 364.61530352242, -233.518698952698, 490.727472159628, 836.637137360323, -47984.3620537727, 0, ]
  - [2000, -47967.2900867514, 1946.11935526547, -46021.170731486, 1290.90581637286, 53.3444, 53.3444, 53.3444, 151798.158855992, 2303.16588604553, 1962.81124243788, 2463.46149554219, 2483.22492015652, -47967.2900867514, 0, ]
  - [2100, -47984.4838006887, 1955.95227400474, -46028.531526684, 1297.42821797074, 53.3444, 53.3444, 53.3444, 151798.158855992, 633.807947269616, 775.149941353729, 108.566613660782, 1017.70728679434, -47984.4838006887, 0, ]
  - [2200, -47993.0390558045, 1965.44704363424, -46027.5920121703, 1303.72631747151, 53.3444, 53.3444, 53.3444, 151798.158855992, -361.658148512891, -1135.78217435507, 45.3819545561175, 5.42577426028133, -47993.0390558045, 0, ]
  - [2300, -47943.4199904833, 1953.92907649339, -45989.4909139899, 1296.08618443718, 53.3444, 53.3444, 53.3444, 151798.158855992, 4263.98746207837, 4924.35121694578, 3442.04471917536, 4425.56645011395, -47943.4199904833, 0, ]
  - [2400, -47984.0467870518, 1959.074283091, -46024.9725039608, 1299.49911854388, 53.3444, 53.3444, 53.3444, 151798.158855992, 932.79148685378, 1073.36811343816, 471.690799367051, 1253.31554775614, -47984.0467870518, 0, ]
  - [2500, -47998.5168827497, 1955.78884049627, -46042.7280422535, 1297.31980875827, 53.3444, 53.3444, 53.3444, 151798.158855992, -703.90436662582, -562.843631669523, -771.035263317208, -777.83420489072, -47998.5168827497, 0, ]
  - [2600, -47984.3070728337, 1940.11669815124, -46044.1903746824, 1286.92411557867, 53.3444, 53.3444, 53.3444, 151798.158855992, -269.616092375458, 349.648455776535, -627.662436356903, -530.834296546006, -47984.3070728337, 0, ]
  - [2700, -47997.3602954197, 1959.40627750646, -46037.9540179132, 1299.71933809041, 53.3444, 53.3444, 53.3444, 151798.158855992, -646.98424706134, -373.473012405374, -1062.75721644912, -504.722512329522, -47997.3602954197, 0, ]
  - [2800, -48011.8694983966, 1969.71118160837, -46042.1583167882, 1306.55481845617, 53.3444, 53.3444, 53.3444, 151798.158855992, -1939.33668542265, -3251.75399264694, -1941.02291160322, -625.233152017786, -48011.8694983966, 0, ]
  - [2900, -47993.6767706544, 1987.57485547033, -46006.1019151841, 1318.40420499445, 53.3444, 53.3444, 53.3444, 151798.158855992, -98.7974436490986, -148.249147254832, 508.588496152483, -656.731679844944, -47993.6767706544, 0, ]
  - [3000, -47992.4897657089, 1973.71353775227, -46018.7762279567, 1309.2096735201, 53.3444, 53.3444, 53.3444, 151798.158855992, -92.8820242223562, 470.455869835783, -1026.58229137744, 277.480348874586, -47992.4897657089, 0, ]
  - [3100, -47975.5541931209, 1939.86398440169, -46035.6902087192, 1286.75648472484, 53.3444, 53.3444, 53.3444, 151798.158855992, 917.782782869439, 897.908839716077, 2127.66228888571, -272.222779993461, -47975.5541931209, 0, ]
  - [3200, -47992.8320206271, 1956.18672846982, -46036.6452921573, 1297.58373702039, 53.3444, 53.3444, 53.3444, 151798.158855992, -131.471161159893, -1766.33218607941, 715.596081086788, 656.322621512948, -47992.8320206271, 0, ]
  - [3300, -47993.3578239962, 1978.33947059943, -46015.0183533968, 1312.27816138155, 53.3444, 53.3444, 53.3444, 151798.158855992, -1388.61188374547, -1403.32247944731, -1782.95834469228, -979.554827096834, -47993.3578239962, 0, ]
  - [3400, -47972.1264623207, 1947.9935272425, -46024.1329350782, 1292.14899783523, 53.3444, 53.3444, 53.3444, 151798.158855992, 1396.85550968781, 1439.95747968971, 1100.24704020696, 1650.36200916677, -47972.1264623207, 0, ]
  - [3500, -47969.0837308936, 1955.89219210493, -46013.1915387886, 1297.38836426202, 53.3444, 53.3444, 53.3444, 151798.158855992, 1115.95553658537, 960.525297029969, 525.966384374552, 1861.37492835158, -47969.0837308936, 0, ]
  - [3600, -47993.1292452953, 1956.83718618601, -46036.2920591093, 1298.01520061324, 53.3444, 53.3444, 53.3444, 151798.158855992, -430.144703604994, 423.335366986824, -21.2751664684564, -1692.49431133335, -47993.1292452953, 0, ]
  - [3700, -47996.7786048362, 1951.60049398685, -46045.1781108493, 1294.54158199876, 53.3444, 53.3444, 53.3444, 151798.158855992, -409.041292792987, -143.363654537587, -1147.30477403155, 63.5445501901818, -47996.7786048362, 0, ]
  - [3800, -48001.4602192751, 1949.25461941375, -46052.2055998613, 1292.9855093341, 53.3444, 53.3444, 53.3444, 151798.158855992, -783.508137461922, 138.889308817388, -2057.27128956742, -432.142431635732, -48001.4602192751, 0, ]
  - [3900, -47999.0459202766, 1958.89668896605, -46040.1492313106, 1299.38131626817, 53.3444, 53.3444, 53.3444, 151798.158855992, -646.303869432442, -804.810037640906, -936.55578810829, -197.545782548139, -47999.0459202766, 0, ]
  - [4000, -47995.3681466167, 1954.03663912732, -46041.3315074894, 1296.15753321103, 53.3444, 53.3444, 53.3444, 151798.158855992, -1056.36240219668, -1094.74055860621, -950.086811663934, -1124.25983631991, -47995.3681466167, 0, ]
  - [4100, -47989.4246379983, 1947.50756002697, -46041.9170779713, 1291.82664458213, 53.3444, 53.3444, 53.3444, 151798.158855992, 448.264582071765, 690.647766481776, 919.539468178865, -265.39348844533, -47989.4246379983, 0, ]
  - [4200, -47962.354922902, 1969.41902176573, -45992.9359011362, 1306.36102209976, 53.3444, 53.3444, 53.3444, 151798.158855992, 1957.70546657342, 1720.24784546878, 1467.68409135493, 2685.18446289655, -47962.354922902, 0, ]
  - [4300, -47970.9761088348, 1979.995586784, -45990.9805220508, 1313.37670141171, 53.3444, 53.3444, 53.3444, 151798.158855992, 2581.18280352165, 2793.42536908971, 2495.83201129488, 2454.29103018037, -47970.9761088348, 0, ]
  - [4400, -47972.7872271962, 1958.34692729005, -46014.4402999061, 1299.0166466793, 53.3444, 53.3444, 53.3444, 151798.158855992, 1668.09635593549, 2598.43283157743, 617.862899074416, 1787.99333715463, -47972.7872271962, 0, ]
  - [4500, -47973.9517735376, 1994.15090175134, -45979.8008717863, 1322.76624803664, 53.3444, 53.3444, 53.3444, 151798.158855992, 1934.61273156108, 2333.14771739869, 1769.66204986618, 1701.02842741837, -47973.9517735376, 0, ]
  - [4600, -47971.8883722883, 1971.07482802511, -46000.8135442632, 1307.45935654941, 53.3444, 53.3444, 53.3444, 151798.158855992, 1845.47287260648, 1605.6870072241, 2885.21780148452, 1045.51380911081, -47971.8883722883, 0, ]
  - [4700, -48004.0989569401, 1974.46301394675, -46029.6359429934, 1309.70681835147, 53.3444, 53.3444, 53.3444, 151798.158855992, -1268.70686646048, -1115.13509035118, -1076.56377159646, -1614.4217374338, -48004.0989569401, 0, ]
  - [4800, -47987.1999648245, 1943.13851524281, -46044.0614495816, 1288.92855649283, 53.3444, 53.3444, 53.3444, 151798.158855992, 170.668184797004, 294.29451429782, -356.644197825309, 574.354237918495, -47987.1999648245, 0, ]
  - [4900, -47991.610415025, 1979.12799552922, -46012.4824194958, 1312.80120813891, 53.3444, 53.3444, 53.3444, 151798.158855992, -129.616594944279, -91.6958629071912, -283.600313284518, -13.553608641129, -47991.610415025, 0, ]
  - [5000, -47991.7654707018, 1960.77043515786, -46030.9950355439, 1300.6242152974, 53.3444, 53.3444, 53.3444, 151798.158855992, 124.786855895615, 1204.84126239256, -584.744486878612, -245.736207827103, -47991.7654707018, 0, ]
  - [5100, -47995.7948559813, 1969.81923257996, -46025.9756234013, 1306.62649115564, 53.3444, 53.3444, 53.3444, 151798.158855992, -410.540267270631, -363.487986016352, -1191.40703568076, 323.274219885218, -47995.7948559813, 0, ]
  - [5200, -47964.4030454653, 1972.96150530761, -45991.4415401577, 1308.71083306909, 53.3444, 53.3444, 53.3444, 151798.158855992, 1832.67567334977, 1398.48976273686, 2851.35743551476, 1248.17982179768, -47964.4030454653, 0, ]
  - [5300, -47970.0978258936, 1957.49485026438, -46012.6029756293, 1298.45144435219, 53.3444, 53.3444, 53.3444, 151798.158855992, 766.545096760997, 723.754912705646, 1406.41941523958, 169.460962337767, -47970.0978258936, 0, ]
  - [5400, -47981.1688321359, 1977.28443839722, -46003.8843937387, 1311.57833420876, 53.3444, 53.3444, 53.3444, 151798.158855992, 1095.16132478363, 707.967221796548, 692.035211082937, 1885.4815414714, -47981.1688321359, 0, ]
  - [5500, -47975.5678051938, 1974.26242982347, -46001.3053753704, 1309.57376628006, 53.3444, 53.3444, 53.3444, 151798.158855992, 1429.46898230019, 2071.07386215204, 1066.47952709631, 1150.85355765222, -47975.5678051938, 0, ]
  - [5600, -47974.338886514, 1992.15525732996, -45982.183629184, 1321.44249110262, 53.3444, 53.3444, 53.3444, 151798.158855992, 1920.6514266868, 2088.58103211343, 1475.1771688458, 2198.19607910119, -47974.338886514, 0, ]
  - [5700, -47976.6825709145, 1960.83339275949, -46015.849178155, 1300.66597652541, 53.3444, 53.3444, 53.3444, 151798.158855992, 653.315714109516, 180.945395955637, 982.525974853808, 796.475771519101, -47976.6825709145, 0, ]
  - [5800, -47991.6701807556, 1953.78303557037, -46037.8871451852, 1295.98931212745, 53.3444, 53.3444, 53.3444, 151798.158855992, -297.260422751516, -424.832627808253, -1508.99020740905, 1042.04156696275, -47991.6701807556, 0, ]
  - [5900, -47976.3976726859, 1933.97792529568, -46042.4197473902, 1282.85212607648, 53.3444, 53.3444, 53.3444, 151798.158855992, 438.526349553549, 1238.8426422917, -382.181231650165, 458.91763801911, -47976.3976726859, 0, ]
  - [6000, -48003.6702282627, 1955.9503054753, -46047.7199227874, 1297.42691219979, 53.3444, 53.3444, 53.3444, 151798.158855992, -1547.51399264189, -2095.08660307468, -1261.78240254498, -1285.67297230601, -48003.6702282627, 0, ]
  - [6100, -48013.5335200612, 1963.88229240053, -46049.6512276607, 1302.68838191874, 53.3444, 53.3444, 53.3444, 151798.158855992, -1806.53085323808, -1540.95492458681, -2062.49563213048, -1816.14200299695, -48013.5335200612, 0, ]
  - [6200, -47996.4401897465, 1996.0858054899, -46000.3543842566, 1324.04971427599, 53.3444, 53.3444, 53.3444, 151798.158855992, -142.705751329713, -826.656610469503, 548.89075809752, -150.351401617156, -47996.4401897465, 0, ]
  - [6300, -47960.6838636318, 1992.3711170715, -45968.3127465603, 1321.58567584363, 53.3444, 53.3444, 53.3444, 151798.158855992, 2917.16401842998, 2489.18170621221, 3599.89844689624, 2662.41190218151, -47960.6838636318, 0, ]
  - [6400, -47983.4841182932, 1973.3594476834, -46010.1246706098, 1308.97479741747, 53.3444, 53.3444, 53.3444, 151798.158855992, 1047.92391002045, 1142.39602058977, 2070.04690322044, -68.6711937488516, -47983.4841182932, 0, ]
  - [6500, -47994.5664750502, 1955.38182362816, -46039.184651422, 1297.04982509001, 53.3444, 53.3444, 53.3444, 151798.158855992, -498.853052927693, -25.0931084115815, -579.877026011216, -891.589024360283, -47994.5664750502, 0, ]
  - [6600, -47984.6997112151, 1937.51031773495, -46047.1893934801, 1285.1952433849, 53.3444, 53.3444, 53.3444, 151798.158855992, 939.363412448798, 975.439546521922, 672.902815721745, 1169.74787510274, -47984.6997112151, 0, ]
  - [6700, -47987.7344468566, 1950.38136097343, -46037.3530858832, 1293.73290297622, 53.3444, 53.3444, 53.3444, 151798.158855992, 47.3539381169522, 152.340347001807, 412.484628334915, -422.76316098587, -47987.7344468566, 0, ]
  - [6800, -47991.4321968131, 1964.03231674107, -46027.399880072, 1302.7878965211, 53.3444, 53.3444, 53.3444, 151798.158855992, 51.7924285993847, 218.984654696923, -686.765342014318, 623.157973115554, -47991.4321968131, 0, ]
  - [6900, -47991.4292648747, 1938.97648733315, -46052.4527775416, 1286.16778746704, 53.3444, 53.3444, 53.3444, 151798.158855992, -201.163708812141, 275.123076749197, 625.868381518629, -1504.48258470425, -47991.4292648747, 0, ]
  - [7000, -47994.293360183, 1960.17783638185, -46034.1155238011, 1300.23113087292, 53.3444, 53.3444, 53.3444, 151798.158855992, 497.029053704545, -344.319604115019, 1045.2959400499, 790.110825178754, -47994.293360183, 0, ]
  - [7100, -48026.7796455856, 1961.93168521569, -46064.8479603699, 1301.39449922158, 53.3444, 53.3444, 53.3444, 151798.158855992, -2838.91828486303, -3257.24838042667, -2358.26205324889, -2901.24442091354, -48026.7796455856, 0, ]
  - [7200, -47990.866558124, 1957.52320779408, -46033.3433503299, 1298.47025455514, 53.3444, 53.3444, 53.3444, 151798.158855992, -659.696132574874, 32.0442659388987, -1040.99627484962, -970.136388813896, -47990.866558124, 0, ]
  - [7300, -47999.7097890726, 1984.76825406186, -46014.9415350108, 1316.54252160252, 53.3444, 53.3444, 53.3444, 151798.158855992, -212.700356531233, 524.079293762607, -310.626997976565, -851.553365379732, -47999.7097890726, 0, ]
  - [7400, -47990.4732949423, 1960.54495374927, -46029.928341193, 1300.4746482829, 53.3444, 53.3444, 53.3444, 151798.158855992, 196.303285644049, 1465.61932584303, 282.256706081118, -1158.966174992, -47990.4732949423, 0, ]
  - [7500, -47980.6150558939, 1936.55013258415, -46044.0649233098, 1284.55833044705, 53.3444, 53.3444, 53.3444, 151798.158855992, 894.132406230275, 1069.79213221425, 907.880047711467, 704.725038765122, -47980.6150558939, 0, ]
  - [7600, -48000.0394027228, 1988.23376002159, -46011.8056427012, 1318.84127156766, 53.3444, 53.3444, 53.3444, 151798.158855992, -325.830244220641, -1908.85829237925, 553.850508244034, 377.517051473297, -48000.0394027228, 0, ]
  - [7700, -47998.5164626022, 1968.2917878497, -46030.2246747525, 1305.61330186632, 53.3444, 53.3444, 53.3444, 151798.158855992, -679.429455761662, -428.281858049533, -343.646750997545, -1266.35975823791, -47998.5164626022, 0, ]
  - [7800, -47973.0003865348, 1960.17860642787, -46012.821780107, 1300.23164166219, 53.3444, 53.3444, 53.3444, 151798.158855992, 1404.00033882945, 2306.76415817966, 2145.77204748224, -240.53518917354, -47973.0003865348, 0, ]
  - [7900, -47993.4563863605, 1961.53491534083, -46031.9214710197, 1301.13131262009, 53.3444, 53.3444, 53.3444, 151798.158855992, 87.3375844588023, 1251.58459931371, -597.30448788589, -392.267358051408, -47993.4563863605, 0, ]
  - [8000, -47986.1384641536, 1950.64858685026, -46035.4898773033, 1293.91016005851, 53.3444, 53.3444, 53.3444, 151798.158855992, 587.168638297916, -65.8322725135438, 2036.4088729666, -209.070685559308, -47986.1384641536, 0, ]
  - [8100, -48005.2340365806, 1951.98958191835, -46053.2444546622, 1294.7996729902, 53.3444, 53.3444, 53.3444, 151798.158855992, -1429.37404759691, -714.140758070735, -1429.7795544169, -2144.2018303031, -48005.2340365806, 0, ]
  - [8200, -47990.4076734268, 1953.24174627678, -46037.1659271501, 1295.63026246508, 53.3444, 53.3444, 53.3444, 151798.158855992, -378.0084243816, -322.08394685267, -1495.93660036533, 683.995274073199, -47990.4076734268, 0, ]
  - [8300, -47971.7804867278, 1963.48979847014, -46008.2906882576, 1302.42803164975, 53.3444, 53.3444, 53.3444, 151798.158855992, 1523.19995297836, 1199.65442896421, 2351.7473307093, 1018.19809926158, -47971.7804867278, 0, ]
  - [8400, -47998.6630192276, 1970.24064259425, -46028.4223766333, 1306.90602212945, 53.3444, 53.3444, 53.3444, 151798.158855992, -514.871478553688, -1270.34210981498, 421.207950075477, -695.48027592156, -47998.6630192276, 0, ]
  - [8500, -47975.2820114654, 1955.2149110786, -46020.0671003868, 1296.93910814941, 53.3444, 53.3444, 53.3444, 151798.158855992, 1193.37577958582, 1118.95481095583, 1570.12498809325, 891.047539708374, -47975.2820114654, 0, ]
  - [8600, -47994.2705588621, 1971.71083629811, -46022.559722564, 1307.88123549361, 53.3444, 53.3444, 53.3444, 151798.158855992, -144.688090414758, -1336.07026679567, -296.364869580402, 1198.37086513181, -47994.2705588621, 0, ]
  - [8700, -47997.5275816409, 1968.80896322988, -46028.718618411, 1305.95635621422, 53.3444, 53.3444, 53.3444, 151798.158855992, -383.575526921933, 240.090589945662, -353.469733912205, -1037.34743679926, -47997.5275816409, 0, ]
  - [8800, -47993.8893265296, 1947.81265779625, -46046.0766687334, 1292.02902296343, 53.3444, 53.3444, 53.3444, 151798.158855992, -158.365980552666, 369.743639554794, -59.3920271713887, -785.449554041404, -47993.8893265296, 0, ]
  - [8900, -47990.8348193279, 1954.31742037813, -46036.5173989498, 1296.34378188525, 53.3444, 53.3444, 53.3444, 151798.158855992, 300.513072665129, -867.933247221419, 483.436422617084, 1286.03604259973, -47990.8348193279, 0, ]
  - [9000, -47977.6555740234, 1982.65489664785, -45995.0006773755, 1315.1406829278, 53.3444, 53.3444, 53.3444, 151798.158855992, 470.8188037468, -321.329989996022, 818.248789531058, 915.537611705367, -47977.6555740234, 0, ]
  - [9100, -47994.7211413062, 1965.71802878695, -46029.0031125192, 1303.90606816812, 53.3444, 53.3444, 53.3444, 151798.158855992, -591.625755375366, -1367.16675030465, -127.584209489313, -280.126306332139, -47994.7211413062, 0, ]
  - [9200, -47981.7935944004, 1940.77615694448, -46041.0174374559, 1287.36154979335, 53.3444, 53.3444, 53.3444, 151798.158855992, 831.944858994177, 1277.36651179676, 1448.59648169738, -230.128416511618, -47981.7935944004, 0, ]
  - [9300, -47989.2188344009, 1962.51678239471, -46026.7020520062, 1301.7826076639, 53.3444, 53.3444, 53.3444, 151798.158855992, -61.1643385115235, 203.1818658966, -357.646239545968, -29.028641885204, -47989.2188344009, 0, ]
  - [9400, -47986.2809036809, 1963.51206885855, -46022.7688348224, 1302.44280411159, 53.3444, 53.3444, 53.3444, 151798.158855992, 665.876539984348, 1140.43571387371, -90.8413270630259, 948.035233142358, -47986.2809036809, 0, ]
  - [9500, -47995.6154360412, 1971.2329750014, -46024.3824610398, 1307.56425908326, 53.3444, 53.3444, 53.3444, 151798.158855992, -762.31753285287, 12.9372778622848, -249.346560017528, -2050.54331640336, -47995.6154360412, 0, ]
  - [9600, -48003.81744859, 1975.48600098351, -46028.3314476065, 1310.38538922753, 53.3444, 53.3444, 53.3444, 151798.158855992, -1411.23858564243, -2052.3347542716, -535.594862724153, -1645.78613993152, -48003.81744859, 0, ]
  - [9700, -47991.7021315017, 1978.89141376442, -46012.8107177372, 1312.64427800233, 53.3444, 53.3444, 53.3444, 151798.158855992, 209.418917500538, -93.1883809219531, 453.553935274748, 267.89119814882, -47991.7021315017, 0, ]
  - [9800, -47986.8804384022, 1957.72259614364, -46029.1578422585, 1298.60251344227, 53.3444, 53.3444, 53.3444, 151798.158855992, 363.870188532512, 153.485405851392, 818.686482286613, 119.43867745953, -47986.8804384022, 0, ]
  - [9900, -47991.3725961358, 1957.02936313748, -46034.3432329983, 1298.14267601384, 53.3444, 53.3444, 53.3444, 151798.158855992, -767.849316731334, -991.054460926991, 514.265690941166, -1826.75918020817, -47991.3725961358, 0, ]
  - [10000, -47995.2180628702, 1942.20095846183, -46053.0171044084, 1288.30665347415, 53.3444, 53.3444, 53.3444, 151798.158855992, -704.138401232595, -498.974876552023, -1096.55673215313, -516.883594992643, -47995.2180628702, 0, ]
  - [10100, -47983.7928802997, 1950.29052915489, -46033.5023511448, 1293.67265213778, 53.3444, 53.3444, 53.3444, 151798.158855992, 361.774651349155, 1033.07511717436, 133.548040280917, -81.2992034078051, -47983.7928802997, 0, ]
  - [10200, -47977.1140861188, 1957.88766757367, -46019.2264185451, 1298.71200912586, 53.3444, 53.3444, 53.3444, 151798.158855992, 2126.85721501988, 2270.46430950523, 1640.51038599292, 2469.59694956151, -47977.1140861188, 0, ]
  - [10300, -48006.119358903, 1949.63818350306, -46056.4811753999, 1293.23993623372, 53.3444, 53.3444, 53.3444, 151798.158855992, -1656.85621834457, -1134.57179834498, -1375.70450258223, -2460.29235410651, -48006.119358903, 0, ]
  - [10400, -47992.158769429, 1975.22783730661, -46016.9309321224, 1310.2141433113, 53.3444, 53.3444, 53.3444, 151798.158855992, -218.525747786361, 167.332561826835, -465.184683478396, -357.725121707527, -47992.158769429, 0, ]
  - [10500, -47975.3408652973, 1940.08280606017, -46035.2580592371, 1286.90163417362, 53.3444, 53.3444, 53.3444, 151798.158855992, 1022.18027215817, 810.646421154911, 1290.76331341856, 965.13108190103, -47975.3408652973, 0, ]
  - [10600, -48003.8157858615, 1949.22032002094, -46054.5954658406, 1292.96275775642, 53.3444, 53.3444, 53.3444, 151798.158855992, -1213.84681927234, -425.681090909106, -1779.71513445164, -1436.14423245625, -48003.8157858615, 0, ]
  - [10700, -47994.0099691292, 1951.60283772902, -46042.4071314002, 1294.54313665695, 53.3444, 53.3444, 53.3444, 151798.158855992, -854.235669597258, -1548.2294578447, -1052.21501255716, 37.7374616100853, -47994.0099691292, 0, ]
  - [10800, -47989.5369017072, 1952.68619463667, -46036.8507070705, 1295.26175225959, 53.3444, 53.3444, 53.3444, 151798.158855992, 500.82676715713, 1525.7298638766, 36.1963224815942, -59.4458848868011, -47989.5369017072, 0, ]
  - [10900, -47992.703257559, 1946.18126958848, -46046.5219879705, 1290.94688557012, 53.3444, 53.3444, 53.3444, 151798.158855992, 102.05486373081, 330.144956898483, 145.828851259089, -169.809216965142, -47992.703257559, 0, ]
  - [11000, -47987.7011736955, 1966.67995574888, -46021.0212179466, 1304.54413648943, 53.3444, 53.3444, 53.3444, 151798.158855992, 677.821985340231, 682.897147253379, 804.408510958841, 546.160297808469, -47987.7011736955, 0, ]
  - [11100, -47988.8785172044, 1955.25696843833, -46033.6215487661, 1296.96700576533, 53.3444, 53.3444, 53.3444, 151798.158855992, 421.185567960199, 112.492773723268, -384.57266845165, 1535.63659860897, -47988.8785172044, 0, ]
  - [11200, -48011.0202927223, 1960.56448011604, -46050.4558126062, 1300.48760057196, 53.3444, 53.3444, 53.3444, 151798.158855992, -2301.16541111694, -2057.80239861056, -2196.31082792419, -2649.38300681605, -48011.0202927223, 0, ]
  - [11300, -47978.1928619772, 1926.65312352232, -46051.5397384549, 1277.99341626127, 53.3444, 53.3444, 53.3444, 151798.158855992, 1034.63422805368, 1547.04397860534, 1293.96946825038, 262.889237305313, -47978.1928619772, 0, ]
  - [11400, -47977.5245203353, 1939.03634676605, -46038.4881735693, 1286.20749360834, 53.3444, 53.3444, 53.3444, 151798.158855992, 733.212638243454, 415.673696599534, 1649.04344664746, 134.920771483372, -47977.5245203353, 0, ]
  - [11500, -47986.3856148616, 1950.9275453541, -46035.4580695075, 1294.09519966266, 53.3444, 53.3444, 53.3444, 151798.158855992, -9.5068359324379, -666.542726833256, 537.418816836541, 100.603402199413, -47986.3856148616, 0, ]
  - [11600, -48010.5187639582, 1927.89829237022, -46082.6204715879, 1278.81936545281, 53.3444, 53.3444, 53.3444, 151798.158855992, -2686.37205901061, -3110.49704395185, -2437.44375966415, -2511.17537341584, -48010.5187639582, 0, ]
  - [11700, -48006.7356852075, 1934.10925019405, -46072.6264350135, 1282.93923690794, 53.3444, 53.3444, 53.3444, 151798.158855992, -1501.17480603867, -2071.59874949276, -1236.88188302473, -1195.04378559852, -48006.7356852075, 0, ]
  - [11800, -48008.0565478067, 1919.05323024736, -46089.0033175593, 1272.9522319136, 53.3444, 53.3444, 53.3444, 151798.158855992, -2169.39487275449, -1876.91931554675, -1397.13010184894, -3234.13520086779, -48008.0565478067, 0, ]
  - [11900, -47995.7689945658, 1965.84055988601, -46029.9284346798, 1303.98734586984, 53.3444, 53.3444, 53.3444, 151798.158855992, -724.21208762867, 684.992178888692, -1492.93093604695, -1364.69750572775, -47995.7689945658, 0, ]
  - [12000, -47995.7264758497, 1913.26140201382, -46082.4650738359, 1269.11037877449, 53.3444, 53.3444, 53.3444, 151798.158855992, -183.456407970082, 241.320014269646, -154.627112580358, -637.062125599532, -47995.7264758497, 0, ]
  - [12100, -47980.3414138687, 1942.7231827077, -46037.618231161, 1288.65305685101, 53.3444, 53.3444, 53.3444, 151798.158855992, 790.784325604905, 697.910747264494, 1607.38993013695, 67.0522994132736, -47980.3414138687, 0, ]
  - [12200, -47980.2815424178, 1950.88237534289, -46029.399167075, 1294.06523735328, 53.3444, 53.3444, 53.3444, 151798.158855992, 657.423819649228, 1569.29911481908, 153.829693953045, 249.142650175565, -47980.2815424178, 0, ]
  - [12300, -48006.8687553275, 1991.87228826479, -46014.9964670627, 1321.25479120071, 53.3444, 53.3444, 53.3444, 151798.158855992, -1381.11184179694, -963.778217507327, -1392.4447732152, -1787.11253466829, -48006.8687553275, 0, ]
  - [12400, -47991.6132927313, 1956.41994409169, -46035.1933486396, 1297.7384343168, 53.3444, 53.3444, 53.3444, 151798.158855992, 306.288444687972, 335.505270973793, 726.790316775453, -143.430253685326, -47991.6132927313, 0, ]
  - [12500, -47993.3945390385, 1964.23852247543, -46029.1560165631, 1302.92467753668, 53.3444, 53.3444, 53.3444, 151798.158855992, -225.207730498642, -182.577358831987, 191.684451209209, -684.730283873158, -47993.3945390385, 0, ]
  - [12600, -47980.6907000307, 1952.22799488528, -46028.4627051454, 1294.95781780535, 53.3444, 53.3444, 53.3444, 151798.158855992, 750.133448087136, 1208.84345681839, 264.295946035893, 777.260941407123, -47980.6907000307, 0, ]
  - [12700, -48001.2270301104, 1964.93014904241, -46036.296881068, 1303.38344937699, 53.3444, 53.3444, 53.3444, 151798.158855992, -1210.64751792047, -361.939175276794, -731.992832600347, -2538.01054588428, -48001.2270301104, 0, ]
  - [12800, -47991.5749659909, 1959.96164032873, -46031.6133256622, 1300.08772304868, 53.3444, 53.3444, 53.3444, 151798.158855992, -409.851681177408, 352.975201291463, -987.32074968284, -595.209495140843, -47991.5749659909, 0, ]
  - [12900, -47999.6594922579, 1942.80600487693, -46056.8534873809, 1288.70799470449, 53.3444, 53.3444, 53.3444, 151798.158855992, -613.971483987689, 1047.13280670868, -1463.72103966839, -1425.32621900336, -47999.6594922579, 0, ]
  - [13000, -47986.7735530051, 1955.11946443503, -46031.6540885701, 1296.87579619118, 53.3444, 53.3444, 53.3444, 151798.158855992, 802.903640313365, 649.405696698415, -152.695402872383, 1912.00062711407, -47986.7735530051, 0, ]
  - [13100, -47994.5136516278, 1973.17774589014, -46021.3359057377, 1308.85427043071, 53.3444, 53.3444, 53.3444, 151798.158855992, -414.339131262807, -430.070152551727, -1355.51023453015, 542.562993293457, -47994.5136516278, 0, ]
  - [13200, -47974.1175560804, 1988.12583701861, -45985.9917190618, 1318.76968375272, 53.3444, 53.3444, 53.3444, 151798.158855992, 1688.88207119687, 1816.12208282331, 688.542044501003, 2561.9820862663, -47974.1175560804, 0, ]
  - [13300, -47978.4447535195, 1977.40479099235, -46001.0399625272, 1311.65816685862, 53.3444, 53.3444, 53.3444, 151798.158855992, 1555.73174985317, 1269.6532339715, 1556.78585691118, 1840.75615867684, -47978.4447535195, 0, ]
  - [13400, -47982.9969016234, 1973.04310410481, -46009.9537975186, 1308.7649594317, 53.3444, 53.3444, 53.3444, 151798.158855992, 1185.98249430291, 1568.0032845288, 1003.73693833455, 986.207260045371, -47982.9969016234, 0, ]
  - [13500, -47985.1612920483, 1959.87114208998, -46025.2901499583, 1300.0276934814, 53.3444, 53.3444, 53.3444, 151798.158855992, 756.812613792982, 700.406345282407, 344.724016044742, 1225.3074800518, -47985.1612920483, 0, ]
  - [13600, -47994.057492119, 1954.67288753363, -46039.3846045853, 1296.57957144118, 53.3444, 53.3444, 53.3444, 151798.158855992, -1032.49590922281, -1454.15487436343, -1818.89947258848, 175.566619283479, -47994.057492119, 0, ]
  - [13700, -47988.8861183448, 1952.98406220283, -46035.902056142, 1295.45933468054, 53.3444, 53.3444, 53.3444, 151798.158855992, -298.173721308553, -1132.94155792006, -426.976338492755, 665.396732487158, -47988.8861183448, 0, ]
  - [13800, -47988.6300828093, 1949.08254675636, -46039.547536053, 1292.87136957507, 53.3444, 53.3444, 53.3444, 151798.158855992, -144.18673623006, 299.082997835059, -957.783689839919, 226.140483314683, -47988.6300828093, 0, ]
  - [13900, -48000.9715622377, 1958.0882142806, -46042.8833479571, 1298.84503637814, 53.3444, 53.3444, 53.3444, 151798.158855992, -1717.91958385179, -999.887161131426, -1852.98392870903, -2300.88766171491, -48000.9715622377, 0, ]
  - [14000, -47984.9421377856, 1944.56705352385, -46040.3750842617, 1289.87613885508, 53.3444, 53.3444, 53.3444, 151798.158855992, -232.735604697571, 366.260494451208, -832.159412135788, -232.307896408135, -47984.9421377856, 0, ]
  - [14100, -47971.4473068623, 1952.62010441982, -46018.8272024425, 1295.21791309572, 53.3444, 53.3444, 53.3444, 151798.158855992, 2344.79505352205, 1447.8761039779, 2835.18533943647, 2751.32371715178, -47971.4473068623, 0, ]
  - [14200, -47982.3845703864, 1974.18665282303, -46008.1979175634, 1309.5235016494, 53.3444, 53.3444, 53.3444, 151798.158855992, 774.535216776077, 131.208809356564, 1139.99502255912, 1052.40181841255, -47982.3845703864, 0, ]
  - [14300, -47989.5114871766, 1959.23889175427, -46030.2725954223, 1299.60830726361, 53.3444, 53.3444, 53.3444, 151798.158855992, -367.503022316687, -165.073273365281, -391.743140927103, -545.692652657673, -47989.5114871766, 0, ]
  - [14400, -48010.9350089506, 1974.56366069672, -46036.3713482539, 1309.77357966011, 53.3444, 53.3444, 53.3444, 151798.158855992, -1942.50169174491, -1843.73950460939, -2267.92913221765, -1715.83643840769, -48010.9350089506, 0, ]
  - [14500, -47998.3263620341, 1959.20684135768, -46039.1195206764, 1299.58704749695, 53.3444, 53.3444, 53.3444, 151798.158855992, -1017.79642936823, -579.466974228197, -746.042176437029, -1727.88013743947, -47998.3263620341, 0, ]
  - [14600, -47985.8707208936, 1949.12109923511, -46036.7496216585, 1292.89694232266, 53.3444, 53.3444, 53.3444, 151798.158855992, 396.458235001607, -451.615451704798, 1088.82390407229, 552.166252637315, -47985.8707208936, 0, ]
  - [14700, -48014.0089706222, 1949.546159114, -46064.4628115082, 1293.17889433576, 53.3444, 53.3444, 53.3444, 151798.158855992, -2451.58809665969, -2090.93349682302, -2988.92689261905, -2274.90390053699, -48014.0089706222, 0, ]
  - [14800, -47996.5626412631, 1950.7714628663, -46045.7911783968, 1293.9916665516, 53.3444, 53.3444, 53.3444, 151798.158855992, 484.321025928979, 1297.38730691998, 949.749233604079, -794.173462737117, -47996.5626412631, 0, ]
  - [14900, -47982.9574313828, 1960.2543013722, -46022.7031300106, 1300.28185186314, 53.3444, 53.3444, 53.3444, 151798.158855992, 801.984914525907, 1168.78539887527, 758.958083255147, 478.211261447299, -47982.9574313828, 0, ]
  - [15000, -47969.0670162032, 1988.06490357608, -45981.0021126271, 1318.72926519609, 53.3444, 53.3444, 53.3444, 151798.158855992, 2594.75092294029, 2655.15251324909, 3077.19748379789, 2051.90277177387, -47969.0670162032, 0, ]
  - [15100, -47967.5923726456, 1949.03381113304, -46018.5585615126, 1292.83904211301, 53.3444, 53.3444, 53.3444, 151798.158855992, 2492.98147403459, 2976.66011735126, 2759.4457537142, 1742.83855103831, -47967.5923726456, 0, ]
  - [15200, -47993.8498359969, 1955.87784620833, -46037.9719897886, 1297.37884829821, 53.3444, 53.3444, 53.3444, 151798.158855992, -451.748253367872, -570.385711870884, -1008.92927569353, 224.070227460803, -47993.8498359969, 0, ]
  - [15300, -48008.7982449125, 1954.70916839097, -46054.0890765215, 1296.60363736994, 53.3444, 53.3444, 53.3444, 151798.158855992, -1698.70356698879, -2604.33223915931, -1517.3151258938, -974.463335913273, -48008.7982449125, 0, ]
  - [15400, -48003.9384250392, 1968.90282176076, -46035.0356032784, 1306.01861474071, 53.3444, 53.3444, 53.3444, 151798.158855992, -1186.9947787012, -1211.39725539761, -392.193685567425, -1957.39339513855, -48003.9384250392, 0, ]
  - [15500, -47985.7003303306, 1935.27457308889, -46050.4257572417, 1283.71222243877, 53.3444, 53.3444, 53.3444, 151798.158855992, 768.10612117742, 451.077839525177, 1230.33031660832, 622.910207398767, -47985.7003303306, 0, ]
  - [15600, -47991.6299954304, 1961.25676477611, -46030.3732306543, 1300.94680894057, 53.3444, 53.3444, 53.3444, 151798.158855992, 324.07995556625, 462.176926460242, -153.598808866626, 663.66174910513, -47991.6299954304, 0, ]
  - [15700, -47953.151153651, 1959.89431028859, -45993.2568433624, 1300.04306148144, 53.3444, 53.3444, 53.3444, 151798.158855992, 3784.64268075525, 3389.677861027, 4428.47810888674, 3535.77207235201, -47953.151153651, 0, ]
  - [15800, -47991.760629582, 1984.63559952614, -46007.1250300559, 1316.45452879197, 53.3444, 53.3444, 53.3444, 151798.158855992, -379.102840333503, 102.841691993594, 253.41146079881, -1493.56167379291, -47991.760629582, 0, ]
  - [15900, -47986.9150354401, 1952.73339866904, -46034.1816367711, 1295.29306378208, 53.3444, 53.3444, 53.3444, 151798.158855992, -68.178050772244, -807.987395038051, 150.886625718918, 452.5666170024, -47986.9150354401, 0, ]
  - [16000, -47992.9215505742, 1969.21046264478, -46023.7110879294, 1306.22268002862, 53.3444, 53.3444, 53.3444, 151798.158855992, -835.359755529611, -1923.57456534157, -165.482866182003, -417.021835065251, -47992.9215505742, 0, ]
  - [16100, -47974.5065117109, 1954.52777133246, -46019.9787403785, 1296.48331252077, 53.3444, 53.3444, 53.3444, 151798.158855992, 1665.47254479717, 1939.98320275882, 1234.17720383994, 1822.25722779275, -47974.5065117109, 0, ]
  - [16200, -47987.3706105204, 1944.04239478338, -46043.3282157371, 1289.52812062185, 53.3444, 53.3444, 53.3444, 151798.158855992, -5.8126446838101, 893.856418954155, -296.025703375961, -615.268649629622, -47987.3706105204, 0, ]
  - [16300, -48002.8024328529, 1955.80730802788, -46046.995124825, 1297.33205869757, 53.3444, 53.3444, 53.3444, 151798.158855992, -1492.74169043833, -1190.94353564182, -2025.34227340187, -1261.9392622713, -48002.8024328529, 0, ]
  - [16400, -47986.8348845718, 1971.05702774471, -46015.7778568271, 1307.44754921322, 53.3444, 53.3444, 53.3444, 151798.158855992, 638.066369240893, 404.285021726256, 750.069628257024, 759.844457739408, -47986.8348845718, 0, ]
  - [16500, -47992.4150106613, 1948.7700225608, -46043.6449881005, 1292.66406507408, 53.3444, 53.3444, 53.3444, 151798.158855992, -940.885386742367, -1079.75779872604, -1271.79479441553, -471.103567085538, -47992.4150106613, 0, ]
  - [16600, -47981.1834804423, 1963.16775812374, -46018.0157223185, 1302.21441486661, 53.3444, 53.3444, 53.3444, 151798.158855992, 492.966618467997, 9.30538472873819, 644.433526277329, 825.160944397928, -47981.1834804423, 0, ]
  - [16700, -48001.7412872017, 1978.8634623636, -46022.8778248381, 1312.62573719403, 53.3444, 53.3444, 53.3444, 151798.158855992, -1239.81838769009, -1916.17480321764, -74.104470369318, -1729.17588948329, -48001.7412872017, 0, ]
  - [16800, -47990.3797771317, 1958.98014821755, -46031.3996289142, 1299.436676713, 53.3444, 53.3444, 53.3444, 151798.158855992, 298.283874157383, -372.620291342421, -321.233404740738, 1588.70531855531, -47990.3797771317, 0, ]
  - [16900, -48017.0292560736, 1983.08363978794, -46033.9456162856, 1315.42507813294, 53.3444, 53.3444, 53.3444, 151798.158855992, -2113.09111591802, -3384.19692232875, -2144.32508572429, -810.751339701023, -48017.0292560736, 0, ]
  - [17000, -48002.0830252117, 1969.20427434766, -46032.8787508641, 1306.21857518853, 53.3444, 53.3444, 53.3444, 151798.158855992, -1407.29323989379, -2597.51437839938, -1356.22793472927, -268.137406552724, -48002.0830252117, 0, ]
  - [17100, -47978.1346320726, 1953.3899840696, -46024.744648003, 1295.72859200917, 53.3444, 53.3444, 53.3444, 151798.158855992, 801.858254660787, 775.706779559222, 1167.03027760608, 462.83770681705, -47978.1346320726, 0, ]
  - [17200, -47988.2886085249, 1949.45638139542, -46038.8322271295, 1293.11934270612, 53.3444, 53.3444, 53.3444, 151798.158855992, 13.0881661105846, 1279.02351867748, -1996.80232931825, 757.043308972529, -47988.2886085249, 0, ]
  - [17300, -47973.8793221911, 1963.61490089216, -46010.264421299, 1302.51101496924, 53.3444, 53.3444, 53.3444, 151798.158855992, 2065.99720228355, 2519.63107789002, 1938.58259744952, 1739.7779315111, -47973.8793221911, 0, ]
  - [17400, -47972.3099288646, 1952.89333852115, -46019.4165903434, 1295.39915557177, 53.3444, 53.3444, 53.3444, 151798.158855992, 1293.55583118844, 1524.19550161773, 1154.91283470239, 1201.55915724521, -47972.3099288646, 0, ]
  - [17500, -47992.9066057169, 1966.78784539806, -46026.1187603188, 1304.61570218002, 53.3444, 53.3444, 53.3444, 151798.158855992, -8.65770032546957, 875.150509348244, -1054.12092572715, 152.997315402504, -47992.9066057169, 0, ]
  - [17600, -47992.8651463251, 1972.70378872235, -46020.1613576028, 1308.53988371904, 53.3444, 53.3444, 53.3444, 151798.158855992, -285.374679472296, -674.235749612338, 67.3336882854322, -249.221977089988, -47992.8651463251, 0, ]
  - [17700, -48001.6277972308, 1963.40029292947, -46038.2275043014, 1302.36866056198, 53.3444, 53.3444, 53.3444, 151798.158855992, -757.815749984732, -1619.03284251069, -538.59812958813, -115.816277855386, -48001.6277972308, 0, ]
  - [17800, -47967.9113009373, 1925.6348755428, -46042.2764253945, 1277.31798891108, 53.3444, 53.3444, 53.3444, 151798.158855992, 1669.17090317565, 1039.12852872665, 1889.7784128162, 2078.6057679841, -47967.9113009373, 0, ]
  - [17900, -47998.9503558236, 1942.05922416002, -46056.8911316636, 1288.21263784551, 53.3444, 53.3444, 53.3444, 151798.158855992, -1289.65591021575, -1981.32237026658, -610.567026675631, -1277.07833370504, -47998.9503558236, 0, ]
  - [18000, -47985.8999614522, 1968.96327135475, -46016.9366900974, 1306.05871234946, 53.3444, 53.3444, 53.3444, 151798.158855992, 324.268573385485, -338.987436592912, 225.134965627661, 1086.6581911217, -47985.8999614522, 0, ]
  - [18100, -47991.2013052783, 1994.37351188826, -45996.8277933901, 1322.91391047047, 53.3444, 53.3444, 53.3444, 151798.158855992, 504.303938582339, 809.70051949867, 369.522028347185, 333.68926790117, -47991.2013052783, 0, ]
  - [18200, -47968.1446955247, 1948.16671030334, -46019.9779852214, 1292.26387415047, 53.3444, 53.3444, 53.3444, 151798.158855992, 2416.69778442864, 1609.98913783172, 3071.64211710056, 2568.46209835364, -47968.1446955247, 0, ]
  - [18300, -47992.2414104251, 1940.55768050266, -46051.6837299225, 1287.21662933474, 53.3444, 53.3444, 53.3444, 151798.158855992, -280.505778814723, -1784.07564822713, 294.692893730773, 647.865418052191, -47992.2414104251, 0, ]
  - [18400, -47999.8455499484, 1960.19704374212, -46039.6485062062, 1300.24387155761, 53.3444, 53.3444, 53.3444, 151798.158855992, -654.625226589752, 470.233126615716, -862.532443467519, -1571.57636291745, -47999.8455499484, 0, ]
  - [18500, -47964.8311211533, 1972.8167887307, -45992.0143324226, 1308.61483922865, 53.3444, 53.3444, 53.3444, 151798.158855992, 3276.18617837181, 2475.86691545749, 4047.67238847605, 3305.01923118189, -47964.8311211533, 0, ]
  - [18600, -47975.0784607602, 1961.10242207133, -46013.9760386889, 1300.84442986769, 53.3444, 53.3444, 53.3444, 151798.158855992, 1093.02642435126, 1709.59607906208, 1456.04498914093, 113.438204850781, -47975.0784607602, 0, ]
  - [18700, -47977.6529568938, 1952.4284454552, -46025.2245114386, 1295.09078128773, 53.3444, 53.3444, 53.3444, 151798.158855992, 1304.92810566604, 1722.23741676748, 1577.93975237498, 614.607147855674, -47977.6529568938, 0, ]
  - [18800, -47990.1725000076, 1980.21778386482, -46009.9547161427, 1313.52408985592, 53.3444, 53.3444, 53.3444, 151798.158855992, 87.9301846833083, -337.294843064054, 704.361390048135, -103.275992934163, -47990.1725000076, 0, ]
  - [18900, -47984.0040933386, 1948.30242168888, -46035.7016716497, 1292.35389463994, 53.3444, 53.3444, 53.3444, 151798.158855992, 928.69560375369, 897.447406607429, 1332.86530655119, 555.774098102454, -47984.0040933386, 0, ]
  - [19000, -47990.0110901945, 1952.23779563459, -46037.7732945599, 1294.96431886823, 53.3444, 53.3444, 53.3444, 151798.158855992, 69.2550096775664, 814.009110151956, -1064.8706933884, 458.626612269131, -47990.0110901945, 0, ]
  - [19100, -47978.2190071149, 1996.08608434147, -45982.1329227734, 1324.04989924466, 53.3444, 53.3444, 53.3444, 151798.158855992, 1123.17890812101, 1528.14084273295, 1489.97920094418, 351.416680685892, -47978.2190071149, 0, ]
  - [19200, -47971.7500850548, 1988.67675043283, -45983.073334622, 1319.13511731609, 53.3444, 53.3444, 53.3444, 151798.158855992, 1180.3940301542, 1627.25416700111, 766.152141598407, 1147.77578186308, -47971.7500850548, 0, ]
  - [19300, -47973.1724318703, 1978.09600435895, -45995.0764275114, 1312.11666461359, 53.3444, 53.3444, 53.3444, 151798.158855992, 1449.83381607183, 2529.41498399167, 872.852178244094, 947.234285979739, -47973.1724318703, 0, ]
  - [19400, -47984.3862283867, 1988.24683365641, -45996.1393947303, 1318.84994361092, 53.3444, 53.3444, 53.3444, 151798.158855992, 170.329147490183, -187.530239739042, 255.087528129942, 443.430154079659, -47984.3862283867, 0, ]
  - [19500, -47986.9527934831, 1974.48301622944, -46012.4697772536, 1309.72008632652, 53.3444, 53.3444, 53.3444, 151798.158855992, 393.574657764723, 483.863007448922, -499.963859908694, 1196.82482575393, -47986.9527934831, 0, ]
  - [19600, -47973.4457411139, 1944.48983251335, -46028.9559086006, 1289.82491637928, 53.3444, 53.3444, 53.3444, 151798.158855992, 1569.62041152826, 1430.36547939145, 1699.05170228286, 1579.44405291048, -47973.4457411139, 0, ]
  - [19700, -47984.4222075435, 1961.18882550754, -46023.233382036, 1300.90174325808, 53.3444, 53.3444, 53.3444, 151798.158855992, 739.30220539608, 381.620341684184, 597.977105732895, 1238.30916877116, -47984.4222075435, 0, ]
  - [19800, -47979.6248215291, 1952.36917855885, -46027.2556429703, 1295.05146818959, 53.3444, 53.3444, 53.3444, 151798.158855992, 74.2323988005475, -504.600038527588, -547.79431427225, 1275.09154920149, -47979.6248215291, 0, ]
  - [19900, -47981.4975133962, 1976.85089368029, -46004.6466197159, 1311.29075400705, 53.3444, 53.3444, 53.3444, 151798.158855992, 375.006889473914, 1151.48352572578, 87.5224167452383, -113.985274049278, -47981.4975133962, 0, ]
  - [20000, -47988.6920265395, 1983.53152336904, -46005.1605031705, 1315.7221696337, 53.3444, 53.3444, 53.3444, 151798.158855992, 322.226457898226, 755.784659587682, -692.146908247954, 903.04162235495, -50149.8045659832, 0, ]
...
Loop time of 19.1955 on 64 procs for 20000 steps with 11664 atoms

Performance: 90.021 ns/day, 0.267 hours/ns, 1041.912 timesteps/s, 12.153 Matom-step/s
76.4% CPU use with 64 MPI tasks x 1 OpenMP threads

MPI task timing breakdown:
Section |  min time  |  avg time  |  max time  |%varavg| %total
---------------------------------------------------------------
Pair    | 11.807     | 12.08      | 12.427     |   4.1 | 62.93
Neigh   | 0.073717   | 0.076548   | 0.086246   |   1.0 |  0.40
Comm    | 4.1602     | 4.4487     | 4.7638     |   6.9 | 23.18
Output  | 0.027232   | 0.028643   | 0.10058    |   5.4 |  0.15
Modify  | 1.9088     | 2.0342     | 2.2181     |   5.9 | 10.60
Other   |            | 0.5278     |            |       |  2.75

Nlocal:         182.25 ave         193 max         174 min
Histogram: 3 5 10 10 10 14 6 1 3 2
Nghost:        1271.75 ave        1282 max        1260 min
Histogram: 2 3 2 5 9 21 9 8 2 3
Neighs:        7100.69 ave        7628 max        6586 min
Histogram: 1 1 6 15 11 14 7 4 2 3

Total # of neighbors = 454444
Ave neighs/atom = 38.961248
Neighbor list builds = 207
Dangerous builds = 0
fix fpf all print 1 "${dE} ${lambda}" title "# dE [eV] lambda" screen no file data/forward_${T}K.dat
fix fpf all print 1 "${dE} ${lambda}" title "# dE [eV] lambda" screen no file data/forward_1300K.dat
run ${t}
run 100000
Per MPI rank memory allocation (min/avg/max) = 3.736 | 3.736 | 3.736 Mbytes
---
keywords: ['Step', 'PotEng', 'KinEng', 'TotEng', 'Temp', 'Lx', 'Ly', 'Lz', 'Volume', 'Press', 'Pxx', 'Pyy', 'Pzz', 'v_dE', 'v_lambda', ]
data:
  - [20000, -47988.6920265395, 1983.53152336904, -46005.1605031705, 1315.7221696337, 53.3444, 53.3444, 53.3444, 151798.158855992, 322.226457898247, 755.784659587677, -692.146908247947, 903.04162235501, -50149.8045659832, 0, ]
  - [20100, -47989.6117193529, 1972.45040047273, -46017.1613188802, 1308.37180545378, 53.3444, 53.3444, 53.3444, 151798.158855992, -427.303975718407, -816.864762865843, -349.511593386323, -115.535570903049, -50168.1161024127, 1.2558053968507e-13, ]
  - [20200, -47987.3043893621, 1965.8810512163, -46021.4233381458, 1304.01420470233, 53.3444, 53.3444, 53.3444, 151798.158855992, 393.350608972673, -196.336664470441, 371.746390640222, 1004.64210074824, -50180.2276592851, 4.00518903939584e-12, ]
  - [20300, -47999.8236972356, 1964.04576734315, -46035.7779298924, 1302.79681861543, 53.3444, 53.3444, 53.3444, 151798.158855992, -818.775092579952, -478.915541126722, -1259.64880812823, -717.760928484899, -50163.6043333018, 3.03129989146628e-11, ]
  - [20400, -47998.7223570056, 1956.82731984212, -46041.8950371635, 1298.00865603997, 53.3444, 53.3444, 53.3444, 151798.158855992, -573.916799157363, -1514.36469097812, -491.106234694954, 283.72052820099, -50142.5316989192, 1.2731250673451e-10, ]
  - [20500, -48006.9590747307, 1966.90052984583, -46040.0585448849, 1304.69044837102, 53.3444, 53.3444, 53.3444, 151798.158855992, -2044.94239626755, -2284.24684313733, -1994.91152030647, -1855.66882535885, -50166.8598233642, 3.87229564589844e-10, ]
  - [20600, -47990.3131675984, 1971.20525387532, -46019.1079137231, 1307.5458710215, 53.3444, 53.3444, 53.3444, 151798.158855992, 356.524813973164, -253.259722863203, 475.573880673951, 847.260284108747, -50174.650917256, 9.60331117066399e-10, ]
  - [20700, -47974.1034640968, 1962.18803009527, -46011.9154340015, 1301.56453868764, 53.3444, 53.3444, 53.3444, 151798.158855992, 1063.98919119605, 1042.32336374754, 675.661199120934, 1473.98301071966, -50207.4034211538, 2.06871232013244e-09, ]
  - [20800, -47971.1406022934, 1953.8593280667, -46017.2812742267, 1296.03991869841, 53.3444, 53.3444, 53.3444, 151798.158855992, 1552.46759560948, 1720.06505836766, 2304.50990207892, 632.827826381845, -50202.5245228425, 4.0197947066522e-09, ]
  - [20900, -48014.3589149948, 1926.02416611659, -46088.3347488782, 1277.57621431982, 53.3444, 53.3444, 53.3444, 151798.158855992, -2809.68922977509, -3765.3736775531, -2274.07647619394, -2389.61753557824, -50163.0943054162, 7.21953805066232e-09, ]
  - [21000, -47999.4572333942, 1929.13287558074, -46070.3243578135, 1279.63829294713, 53.3444, 53.3444, 53.3444, 151798.158855992, -720.070373104733, -1079.04678518936, -577.252420874169, -503.911913250656, -50132.9235467748, 1.218536857e-08, ]
  - [21100, -47992.4914544322, 1951.30697240489, -46041.1844820273, 1294.34688236929, 53.3444, 53.3444, 53.3444, 151798.158855992, -182.299475131816, 229.181582266053, -901.209040883736, 125.129033222238, -50154.2181862025, 1.95588260943488e-08, ]
  - [21200, -47970.8210609019, 1973.79500175143, -45997.0260591504, 1309.26371046807, 53.3444, 53.3444, 53.3444, 151798.158855992, 888.316815418425, 1245.49899001834, -697.663410365282, 2117.11486660221, -50205.7410266963, 3.01179328132704e-08, ]
  - [21300, -47995.9069316001, 1969.05375771226, -46026.8531738879, 1306.11873403564, 53.3444, 53.3444, 53.3444, 151798.158855992, -1395.47865692957, -1640.56930458788, -803.352674653598, -1742.51399154722, -50217.2635557626, 4.47892862063179e-08, ]
  - [21400, -47954.0340968164, 1971.98040470929, -45982.0536921071, 1308.06004643291, 53.3444, 53.3444, 53.3444, 151798.158855992, 3186.37641244714, 2779.31649488376, 3599.92387902939, 3179.88886342829, -50193.3946380091, 6.46598787448807e-08, ]
  - [21500, -47967.2989629188, 1948.2067564155, -46019.0922065033, 1292.29043765952, 53.3444, 53.3444, 53.3444, 151798.158855992, 1727.38755903925, 953.130225069117, 2174.61341560775, 2054.41903644089, -50240.3281060469, 9.09886469429883e-08, ]
  - [21600, -47983.7718773391, 1946.21404230416, -46037.5578350349, 1290.96862446767, 53.3444, 53.3444, 53.3444, 151798.158855992, 1209.38659190728, 1368.4333799754, 1872.72464794251, 387.001747803924, -50237.9087759843, 1.25217752321905e-07, ]
  - [21700, -47975.8154890421, 1978.46899518045, -45997.3464938617, 1312.36407802101, 53.3444, 53.3444, 53.3444, 151798.158855992, 1538.38502141007, 768.249782317234, 1928.75463144177, 1918.15065047119, -50219.8308431655, 1.68983596840977e-07, ]
  - [21800, -47986.4406755404, 1960.75375811468, -46025.6869174257, 1300.61315303033, 53.3444, 53.3444, 53.3444, 151798.158855992, 684.622838761861, 1004.70118213591, 16.6089063566547, 1032.55842779303, -50208.6817683499, 2.24127575334849e-07, ]
  - [21900, -47991.9853659509, 1975.99103494291, -46015.994331008, 1310.72038989123, 53.3444, 53.3444, 53.3444, 151798.158855992, -391.768450397532, 474.33682787104, -1074.41600751906, -575.226171544577, -50185.0470474609, 2.92706567484841e-07, ]
  - [22000, -47990.7189559944, 1963.92368724718, -46026.7952687472, 1302.71584007446, 53.3444, 53.3444, 53.3444, 151798.158855992, -1107.86394219434, -937.695811037996, -2539.77535911216, 153.879343567148, -50185.2979669859, 3.7700317184e-07, ]
  - [22100, -47988.5366506373, 1967.97161852394, -46020.5650321134, 1305.40092617429, 53.3444, 53.3444, 53.3444, 151798.158855992, 83.5631827811926, -389.41401595681, 1157.62797194625, -517.524407645865, -50219.5194301506, 4.79535684391045e-07, ]
  - [22200, -47988.6307483328, 1946.0832324141, -46042.5475159187, 1290.8818552531, 53.3444, 53.3444, 53.3444, 151798.158855992, 260.401068246093, -666.719904988734, 1343.132639497, 104.790470230004, -50292.3706936329, 6.03067824188202e-07, ]
  - [22300, -47974.2508124812, 1935.09968421368, -46039.1511282675, 1283.59621461756, 53.3444, 53.3444, 53.3444, 151798.158855992, 1744.41831891463, 816.767026330673, 2724.41807003324, 1692.06986037996, -50348.922605092, 7.50618208481703e-07, ]
  - [22400, -47980.5211482937, 1954.34090483931, -46026.1802434543, 1296.35935966955, 53.3444, 53.3444, 53.3444, 151798.158855992, 971.719289356911, 1503.19822004803, 907.327102473025, 504.632545549674, -50374.5520021, 9.25469579851522e-07, ]
  - [22500, -47994.6799632805, 1955.09336615293, -46039.5865971275, 1296.85848459923, 53.3444, 53.3444, 53.3444, 151798.158855992, -686.465364025348, -635.040851657125, -799.813635540247, -624.541604878671, -50353.7373386298, 1.13117778778076e-06, ]
  - [22600, -47987.4578133042, 1988.22064628541, -45999.2371670188, 1318.83257292425, 53.3444, 53.3444, 53.3444, 151798.158855992, 512.473970319877, -417.438398070928, 38.4511158384762, 1916.40919319208, -50304.2815745274, 1.37158052711496e-06, ]
  - [22700, -47967.1584707089, 1950.8542509793, -46016.3042197296, 1294.04658181479, 53.3444, 53.3444, 53.3444, 151798.158855992, 2121.59081553217, 2609.97676474746, 962.629190566954, 2792.1664912821, -50290.9745627125, 1.65080583583745e-06, ]
  - [22800, -47997.049424688, 1957.97745475311, -46039.0719699348, 1298.77156703112, 53.3444, 53.3444, 53.3444, 151798.158855992, -644.932372429172, 174.816222524665, -1152.74574453894, -956.867595273242, -50339.348093388, 1.97328035457892e-06, ]
  - [22900, -47982.1359820065, 1952.43685969826, -46029.6991223082, 1295.09636264906, 53.3444, 53.3444, 53.3444, 151798.158855992, 324.321588274898, 410.826379377793, 633.448358667179, -71.3099732202692, -50326.5381461196, 2.343737350267e-06, ]
  - [23000, -47991.1285531867, 1954.85448814785, -46036.2740650389, 1296.70003131355, 53.3444, 53.3444, 53.3444, 151798.158855992, 137.409312844284, -490.341621122137, -45.2385343752742, 947.808094030274, -50291.7457494657, 2.76722450631e-06, ]
  - [23100, -48008.418008226, 1946.8567984802, -46061.5612097458, 1291.39497945146, 53.3444, 53.3444, 53.3444, 151798.158855992, -2288.35129784012, -2757.56686930119, -2006.99381948534, -2100.49320473385, -50296.0295070732, 3.2491114816967e-06, ]
  - [23200, -47971.0238233881, 1955.72005037787, -46015.3037730102, 1297.27417868748, 53.3444, 53.3444, 53.3444, 151798.158855992, 1488.91021934533, 1204.15777756838, 1985.56433572161, 1277.00854474599, -50280.9096042176, 3.79509724138202e-06, ]
  - [23300, -47980.4718996769, 1972.43052347421, -46008.0413762027, 1308.3586205826, 53.3444, 53.3444, 53.3444, 151798.158855992, 1228.37004345803, -261.947257430714, 1490.9243106696, 2456.13307713521, -50272.7375635025, 4.41121716031674e-06, ]
  - [23400, -47979.3960246447, 1978.86395725981, -46000.5320673849, 1312.62606547009, 53.3444, 53.3444, 53.3444, 151798.158855992, 1129.12574295, 12.3175874265695, 1076.23385496082, 2298.8257864626, -50258.9485423418, 5.10384990346721e-06, ]
  - [23500, -47991.7051349177, 1961.41169082843, -46030.2934440892, 1301.04957496132, 53.3444, 53.3444, 53.3444, 151798.158855992, -74.354618359175, -486.358541922677, 144.97600751967, 118.318679325485, -50275.1318273179, 5.87972408415916e-06, ]
  - [23600, -47989.8220698837, 1947.68587957658, -46042.1361903071, 1291.94492804873, 53.3444, 53.3444, 53.3444, 151798.158855992, -265.925006042557, -101.080498990772, -397.943350680758, -298.751168456139, -50289.7014310699, 6.74592470306796e-06, ]
  - [23700, -48002.2267548651, 1963.43791942839, -46038.7888354367, 1302.39361908581, 53.3444, 53.3444, 53.3444, 151798.158855992, -1387.55622012877, -1496.50968912263, -2006.68397831468, -659.474992948994, -50315.0919607894, 7.70989937016563e-06, ]
  - [23800, -48002.6942573922, 1972.43962151886, -46030.2546358733, 1308.36465552528, 53.3444, 53.3444, 53.3444, 151798.158855992, -940.68211042907, -1664.00354234116, -236.805003549727, -921.237785396323, -50330.3128202463, 8.77946431192315e-06, ]
  - [23900, -48001.7913748519, 1972.73307767204, -46029.0582971798, 1308.55931175433, 53.3444, 53.3444, 53.3444, 151798.158855992, -589.829846594804, -496.834626826447, -945.028285405355, -327.626627552612, -50264.1370111887, 9.96281016605489e-06, ]
  - [24000, -47985.1672969297, 1960.39175925767, -46024.7755376721, 1300.37303084627, 53.3444, 53.3444, 53.3444, 151798.158855992, 422.256974007791, 113.814243621226, 605.268866097142, 547.687812305013, -50251.1467992113, 1.126850756608e-05, ]
  - [24100, -48003.2062507443, 1950.25903724253, -46052.9472135017, 1293.65176282658, 53.3444, 53.3444, 53.3444, 151798.158855992, -1622.01007745531, -2778.46318191819, -1206.0963589133, -881.470691534442, -50258.3602796818, 1.2705512517964e-05, ]
  - [24200, -47989.5644243932, 1949.77013310982, -46039.7942912834, 1293.32746144864, 53.3444, 53.3444, 53.3444, 151798.158855992, -60.8773951494977, 103.966644081497, -398.367869078326, 111.769039548339, -50200.366609791, 1.42831715710919e-05, ]
  - [24300, -47979.2877819431, 1976.7037984661, -46002.583983477, 1311.19318236169, 53.3444, 53.3444, 53.3444, 151798.158855992, 828.594185611809, 1198.87363700711, 450.12262369802, 836.786296130296, -50193.7073562637, 1.60112267858132e-05, ]
  - [24400, -47960.9794532928, 1990.03826587423, -45970.9411874186, 1320.03824188428, 53.3444, 53.3444, 53.3444, 151798.158855992, 2876.88726280701, 1492.46536338407, 3701.56891210622, 3436.62751293075, -50159.8381441118, 1.78998204997854e-05, ]
  - [24500, -47987.9858859294, 1984.36238737385, -46003.6234985556, 1316.27330087522, 53.3444, 53.3444, 53.3444, 151798.158855992, 853.541423121647, 615.141510741677, 609.329967518091, 1336.15279110518, -50151.4387150253, 1.99594998953344e-05, ]
  - [24600, -47982.7836254694, 1970.973521614, -46011.8101038554, 1307.39215767233, 53.3444, 53.3444, 53.3444, 151798.158855992, 650.084270251157, 231.089636828587, 710.881830547826, 1008.28134337707, -50133.7723405702, 2.2201221370035e-05, ]
  - [24700, -47983.7188290488, 1956.51244146575, -46027.2063875831, 1297.7997899566, 53.3444, 53.3444, 53.3444, 151798.158855992, 633.871528878168, 655.405901770907, 1276.09203540414, -29.8833505405344, -50125.7017313922, 2.46363547127047e-05, ]
  - [24800, -47996.0875527016, 1964.04288027904, -46032.0446724226, 1302.79490355927, 53.3444, 53.3444, 53.3444, 151798.158855992, -972.159200678108, -1412.63492213233, -1504.1596946192, 0.317014717196106, -50160.9673552374, 2.7276687086994e-05, ]
  - [24900, -47970.5712976839, 1951.25957858874, -46019.3117190951, 1294.31544495885, 53.3444, 53.3444, 53.3444, 151798.158855992, 1818.97876727177, 1899.90536709495, 1457.69959715975, 2099.33133756062, -50180.8505784233, 3.01344268247409e-05, ]
  - [25000, -47983.6935394787, 1970.31493052389, -46013.3786089548, 1306.95529902513, 53.3444, 53.3444, 53.3444, 151798.158855992, 1036.99144416907, 1979.34153618483, 844.559758739084, 287.073037583309, -50151.2716964068, 3.322220703125e-05, ]
  - [25100, -47981.1426157033, 1971.89799223402, -46009.2446234693, 1308.00538033888, 53.3444, 53.3444, 53.3444, 151798.158855992, 1121.52402696691, -134.213884331782, 2192.53499739663, 1306.25096783589, -50132.3682771596, 3.6553089004642e-05, ]
  - [25200, -47979.5068086841, 1965.01800586656, -46014.4888028175, 1303.4417268331, 53.3444, 53.3444, 53.3444, 151798.158855992, 338.247786314863, 100.801532458217, 29.2116214234926, 884.73020506288, -50145.3551527123, 4.01405654714096e-05, ]
  - [25300, -47990.4210991135, 1967.46919625429, -46022.9519028593, 1305.06765790459, 53.3444, 53.3444, 53.3444, 151798.158855992, 627.953816666951, 1279.13551577997, 586.453200215294, 18.272734005588, -50119.0875639013, 4.39985636403039e-05, ]
  - [25400, -47976.6594505488, 1967.52152359419, -46009.1379269546, 1305.10236783502, 53.3444, 53.3444, 53.3444, 151798.158855992, 759.600288087864, 1043.78525153428, 314.001083893801, 921.014528835508, -50118.9227881402, 4.81414480766634e-05, ]
  - [25500, -47975.9414917837, 1986.12689796446, -45989.8145938193, 1317.44374141285, 53.3444, 53.3444, 53.3444, 151798.158855992, 1583.95530916861, 1178.18398580597, 1757.18337676682, 1816.49856493304, -50120.1763342197, 5.25840233992879e-05, ]
  - [25600, -48001.5663623898, 1957.2678483846, -46044.2985140052, 1298.30086877411, 53.3444, 53.3444, 53.3444, 151798.158855992, -610.618065012098, -1769.59924922728, -327.72289899059, 265.46795318158, -50148.7687514977, 5.7341536801945e-05, ]
  - [25700, -48016.7737630379, 1957.79200536559, -46058.9817576723, 1298.64855417872, 53.3444, 53.3444, 53.3444, 151798.158855992, -2822.44131259753, -3489.11657140466, -3295.68815572531, -1682.51921066262, -50187.5546805906, 6.24296804015908e-05, ]
  - [25800, -48001.3449670295, 1965.59858058925, -46035.7463864402, 1303.82683542591, 53.3444, 53.3444, 53.3444, 151798.158855992, -1011.76443035004, -2352.06476860806, 100.3808713052, -783.609393747263, -50185.7041458559, 6.78645934153687e-05, ]
  - [25900, -47997.2692980451, 1969.12949816012, -46028.139799885, 1306.16897442013, 53.3444, 53.3444, 53.3444, 151798.158855992, -738.803722785746, -931.093584326119, -1412.9528787848, 127.635294753681, -50175.1540044192, 7.36628641684442e-05, ]
  - [26000, -47972.2134880526, 1946.05179930171, -46026.1616887509, 1290.86100494528, 53.3444, 53.3444, 53.3444, 151798.158855992, 1310.79362058405, 464.921981361023, 1774.82545092216, 1692.63342946898, -50128.0809006106, 7.98415319347201e-05, ]
  - [26100, -47971.6640951741, 1943.84183979903, -46027.8222553751, 1289.39508787897, 53.3444, 53.3444, 53.3444, 151798.158855992, 1355.18564313549, 582.303373912554, 2051.91450064298, 1431.33905485094, -50077.5482117541, 8.64180886124637e-05, ]
  - [26200, -48008.6296067201, 1985.82405961144, -46022.8055471087, 1317.24286175443, 53.3444, 53.3444, 53.3444, 151798.158855992, -1962.76602035341, -2620.91944199278, -2324.22710577317, -943.151513294273, -50053.9432837674, 9.34104802368714e-05, ]
  - [26300, -47983.1898424759, 1973.54333022449, -46009.6465122514, 1309.09677094452, 53.3444, 53.3444, 53.3444, 151798.158855992, 1189.721805513, 668.107877316227, 1579.99196538559, 1321.06557383718, -49995.598094604, 0.000100837108331577, ]
  - [26400, -47994.7836901711, 1981.99180846608, -46012.791881705, 1314.70084125607, 53.3444, 53.3444, 53.3444, 151798.158855992, -38.9586944664738, -317.928412726625, 484.393553336244, -283.341224009043, -49963.4600353185, 0.000108716831101108, ]
  - [26500, -47993.7239469606, 1952.37855390729, -46041.3453930533, 1295.05768707426, 53.3444, 53.3444, 53.3444, 151798.158855992, -354.094922769431, -137.926411947123, -765.27612754786, -159.082228813309, -49950.033190612, 0.000117068964466276, ]
  - [26600, -47992.7830947391, 1961.36340095929, -46031.4196937798, 1301.01754317829, 53.3444, 53.3444, 53.3444, 151798.158855992, -217.048544068953, -278.939053579327, 491.502950897281, -863.709529524815, -49934.4118878598, 0.000125913282944476, ]
  - [26700, -48002.1597224833, 1959.73856071014, -46042.4211617732, 1299.93974919683, 53.3444, 53.3444, 53.3444, 151798.158855992, -1381.56453082389, -2400.48941842056, -830.352846328094, -913.851327723025, -49926.4868602309, 0.000135270020376872, ]
  - [26800, -47987.774903028, 1991.73140889037, -45996.0434941376, 1321.16134266511, 53.3444, 53.3444, 53.3444, 151798.158855992, 318.57743415273, 122.973706572781, 472.130116196053, 360.628479689359, -49958.1752616073, 0.000145159870504403, ]
  - [26900, -47991.2421591328, 1973.22617940849, -46018.0159797243, 1308.88639749958, 53.3444, 53.3444, 53.3444, 151798.158855992, 107.002694002835, -945.015445554338, 530.763360886625, 735.260166676216, -49948.3112805694, 0.000155603987394582, ]
  - [27000, -47983.4990841072, 1972.49004032036, -46011.0090437869, 1308.3980994782, 53.3444, 53.3444, 53.3444, 151798.158855992, 371.324976382872, 109.012041915356, 819.302021172744, 185.660866060527, -49938.5480688682, 0.00016662398572099, ]
  - [27100, -48003.1783081407, 1981.24294274031, -46021.9353654004, 1314.20410136266, 53.3444, 53.3444, 53.3444, 151798.158855992, -974.395922196241, -2361.04643754326, -73.9891609303079, -488.152168115149, -49895.7312912592, 0.000178241940897419, ]
  - [27200, -47979.638969755, 1947.40588276838, -46032.2330869866, 1291.75919971337, 53.3444, 53.3444, 53.3444, 151798.158855992, 1017.28506760429, 1390.01756985829, 1261.37451620368, 400.463116750911, -49902.1040197643, 0.000190480389068545, ]
  - [27300, -47989.8501297503, 1997.62167159574, -45992.2284581546, 1325.06848965779, 53.3444, 53.3444, 53.3444, 151798.158855992, 60.3566924699178, -402.215808198417, 439.091094420848, 144.194791187318, -49940.3403274649, 0.000203362326959055, ]
  - [27400, -47994.6459726867, 1967.75360438583, -46026.8923683008, 1305.25631237238, 53.3444, 53.3444, 53.3444, 151798.158855992, -154.816709295438, 110.80445365921, -167.661897382578, -407.592684162948, -49962.4057368877, 0.000216911211583103, ]
  - [27500, -47999.1625426871, 1961.00831416754, -46038.1542285195, 1300.7820059264, 53.3444, 53.3444, 53.3444, 151798.158855992, -719.914106990644, -1315.83056966727, -406.606467613281, -437.30528369138, -49929.4489396997, 0.000231150959815979, ]
  - [27600, -47994.2946382997, 1944.82214203352, -46049.4724962662, 1290.04534494202, 53.3444, 53.3444, 53.3444, 151798.158855992, -854.148321383197, -1265.9852600046, -423.098219582054, -873.36148456294, -49897.5218991319, 0.00024610594782986, ]
  - [27700, -47996.0085867698, 1957.84655063788, -46038.1620361319, 1298.68473531482, 53.3444, 53.3444, 53.3444, 151798.158855992, -577.214544392649, -558.75200102832, -655.005910710958, -517.885721438684, -49832.0931268696, 0.000261801010395495, ]
  - [27800, -47973.48792438, 1968.38591882905, -46005.102005551, 1305.67574111416, 53.3444, 53.3444, 53.3444, 151798.158855992, 1992.83029862636, 1129.63179089482, 1523.85647749092, 3325.00262749334, -49825.1652798085, 0.000278261440051671, ]
  - [27900, -47972.2427633777, 1955.87629849974, -46016.3664648779, 1297.37782166743, 53.3444, 53.3444, 53.3444, 151798.158855992, 1927.07543562964, 1307.06826289359, 2498.23795329706, 1975.92009069827, -49848.9678015152, 0.000295512986144304, ]
  - [28000, -48005.6985494462, 1967.64048276233, -46038.0580666839, 1305.18127619264, 53.3444, 53.3444, 53.3444, 151798.158855992, -445.017972243515, -963.184090213134, -376.430112861624, 4.56028634421687, -49819.0166106672, 0.00031358185373696, ]
  - [28100, -47989.3012951881, 1955.30945168328, -46033.9918435049, 1297.00181911117, 53.3444, 53.3444, 53.3444, 151798.158855992, -392.368733546206, -229.090065112596, -191.044145199734, -756.971990326293, -49823.9522615033, 0.000332494702394641, ]
  - [28200, -47988.5061373553, 1960.13791689166, -46028.3682204636, 1300.20465135514, 53.3444, 53.3444, 53.3444, 151798.158855992, 453.864789518629, 1255.93341198361, -143.784968317979, 249.445924890258, -49811.4076866051, 0.000352278644842627, ]
  - [28300, -47998.5763742191, 1949.9654581561, -46048.610916063, 1293.45702505307, 53.3444, 53.3444, 53.3444, 151798.158855992, -1106.00106185971, -508.509992003816, -1606.63002455572, -1202.8631690196, -49838.30956093, 0.000372961245502164, ]
  - [28400, -47978.400514681, 1955.83723065743, -46022.5632840236, 1297.35190706731, 53.3444, 53.3444, 53.3444, 151798.158855992, 2431.85655227574, 1489.76690302774, 3411.67422276931, 2394.12853103016, -49837.6052831155, 0.000394570518904788, ]
  - [28500, -47970.0773073739, 1958.35257049917, -46011.7247368747, 1299.02038994996, 53.3444, 53.3444, 53.3444, 151798.158855992, 2294.70712896578, 2014.97316624446, 3194.31793140003, 1674.83028925286, -49895.3481915005, 0.000417134927987054, ]
  - [28600, -47976.6593676209, 1986.51291604841, -45990.1464515725, 1317.69979610366, 53.3444, 53.3444, 53.3444, 151798.158855992, 2041.50629620086, 1169.57415017332, 2569.83105662321, 2385.11368180604, -49864.8838282029, 0.000440683382267422, ]
  - [28700, -47986.4224561775, 1987.03759534294, -45999.3848608346, 1318.04782797088, 53.3444, 53.3444, 53.3444, 151798.158855992, 734.739241347638, -9.90649040038121, 1180.26848796125, 1033.85572648205, -49837.7012164458, 0.000465245235907057, ]
  - [28800, -47982.4719376198, 1972.2929081341, -46010.1790294857, 1308.26733715618, 53.3444, 53.3444, 53.3444, 151798.158855992, 668.513123427549, -486.665883685979, 1094.08803615814, 1398.11721781048, -49854.8577057865, 0.000490850285656287, ]
  - [28900, -47990.1393904365, 1975.46869583046, -46014.670694606, 1310.37391032072, 53.3444, 53.3444, 53.3444, 151798.158855992, -30.3630131678687, -954.596322925585, 1114.88056930229, -251.373285880309, -49869.039446417, 0.000517528768688429, ]
  - [29000, -47977.6975571786, 1950.712449385, -46026.9851077936, 1293.9525215495, 53.3444, 53.3444, 53.3444, 151798.158855992, 447.077701830068, 1091.53720878902, 1419.59541007277, -1169.89951337159, -49873.8503939922, 0.00054531136032273, ]
  - [29100, -47986.3844012405, 1958.93032256947, -46027.454078671, 1299.4036262124, 53.3444, 53.3444, 53.3444, 151798.158855992, 260.694424098079, 367.339236691234, -87.1685951522213, 501.912630755225, -49877.4359829137, 0.000574229171638096, ]
  - [29200, -47988.2199225689, 1969.70773451841, -46018.5121880504, 1306.55253192196, 53.3444, 53.3444, 53.3444, 151798.158855992, 316.642529693185, 828.11968451326, 218.931360968484, -97.1234564021978, -49925.8623622884, 0.000604313746979337, ]
  - [29300, -47986.2068219852, 1959.16599909429, -46027.0408228909, 1299.55995588244, 53.3444, 53.3444, 53.3444, 151798.158855992, -156.556885115801, -210.827643679908, 33.0022365343001, -291.845248201793, -49944.2271338565, 0.000635597061357593, ]
  - [29400, -47998.0946374137, 1977.26956066282, -46020.8250767508, 1311.56846546468, 53.3444, 53.3444, 53.3444, 151798.158855992, -46.4369165923144, -1155.8659715894, 442.986716186425, 573.568505626024, -49945.4236187842, 0.000668111517746635, ]
  - [29500, -47997.7500572363, 1971.84294284309, -46025.9071143932, 1307.96886480927, 53.3444, 53.3444, 53.3444, 151798.158855992, 18.5874867949632, -560.096016811644, -585.387613523407, 1201.24609071995, -49951.4092353769, 0.000701889944276683, ]
  - [29600, -47999.6418157566, 1951.58342335172, -46048.0583924048, 1294.53025865309, 53.3444, 53.3444, 53.3444, 151798.158855992, -816.73923272389, -588.317786672018, -1365.95630061804, -495.94361088161, -49990.4014496324, 0.000736965591327429, ]
  - [29700, -47984.6764109565, 1960.68846893606, -46023.9879420205, 1300.56984521358, 53.3444, 53.3444, 53.3444, 151798.158855992, 615.177985674875, 60.4456710156676, 522.07648974321, 1263.01179626575, -50008.9722926166, 0.000773372128521878, ]
  - [29800, -47986.1898588756, 1957.70861254886, -46028.4812463267, 1298.59323780161, 53.3444, 53.3444, 53.3444, 151798.158855992, 349.058749378663, 732.337225210434, -781.620921759302, 1096.45994468485, -50020.1412218361, 0.00081114364162266, ]
  - [29900, -47973.3706928266, 1950.98444200173, -46022.3862508249, 1294.1329405202, 53.3444, 53.3444, 53.3444, 151798.158855992, 1941.31297084682, 2096.59113197702, 1880.51660826278, 1846.83117230065, -50037.7104819452, 0.000850314629332433, ]
  - [30000, -47968.6953238538, 1925.61922808281, -46043.076095771, 1277.30760959028, 53.3444, 53.3444, 53.3444, 151798.158855992, 1579.86824776834, 272.329348768683, 2455.81628861936, 2011.45910591699, -50035.2678523289, 0.000890920000000001, ]
  - [30100, -47975.593347427, 1983.69897195924, -45991.8943754678, 1315.8332421424, 53.3444, 53.3444, 53.3444, 151798.158855992, 2239.11292660932, 990.924418106958, 2605.84434703635, 3120.57001468466, -50015.1077194791, 0.000932995068233718, ]
  - [30200, -48003.2819138745, 1969.1043787039, -46034.1775351706, 1306.15231210595, 53.3444, 53.3444, 53.3444, 151798.158855992, -991.106880749172, -408.294952595722, -2079.53179988181, -485.493889769975, -49966.3297151785, 0.000976575551423828, ]
  - [30300, -47990.0686545608, 1951.26907754061, -46038.7995770202, 1294.32174583253, 53.3444, 53.3444, 53.3444, 151798.158855992, -525.027018675496, 658.145787435778, -395.817439687527, -1837.40940377474, -49941.3207722626, 0.00102169756617526, ]
  - [30400, -47997.7247764019, 1962.28326787774, -46035.4415085241, 1301.6277121035, 53.3444, 53.3444, 53.3444, 151798.158855992, -564.363542352501, -1590.48602924389, 243.63057781172, -346.235175625328, -49975.7790911638, 0.00106839762465251, ]
  - [30500, -48008.2582273924, 1944.1449858104, -46064.113241582, 1289.59617161427, 53.3444, 53.3444, 53.3444, 151798.158855992, -2078.08894872845, -2548.34314052678, -2300.82124089491, -1385.10246476367, -49959.5498891335, 0.00111671263083812, ]
  - [30600, -47992.8840307047, 1950.99506425102, -46041.8889664536, 1294.13998650295, 53.3444, 53.3444, 53.3444, 151798.158855992, -230.186580492479, -330.62224684557, -247.185345764, -112.752148867867, -49932.6381419922, 0.00116667987670637, ]
  - [30700, -47996.940253776, 1959.73892098596, -46037.2013327901, 1299.93998817609, 53.3444, 53.3444, 53.3444, 151798.158855992, -481.562356519286, 64.5662404000954, -1049.74388719409, -459.509422763868, -49915.0426937602, 0.00121833703831365, ]
  - [30800, -47978.7761290999, 1960.32188956172, -46018.4542395381, 1300.32668466681, 53.3444, 53.3444, 53.3444, 151798.158855992, 1078.54258390417, 601.588100568664, 997.389747315734, 1636.64990382812, -49926.6444168814, 0.00127172217180712, ]
  - [30900, -47992.0998052966, 1965.04681502684, -46027.0529902698, 1303.46083661302, 53.3444, 53.3444, 53.3444, 151798.158855992, -300.592667528152, -1424.46321508277, 558.868655933674, -36.1834434353584, -49922.9139347285, 0.00132687370935312, ]
  - [31000, -48004.7632289939, 1962.42583294859, -46042.3373960453, 1301.72227880038, 53.3444, 53.3444, 53.3444, 151798.158855992, -1099.83362624553, -736.319299156101, -1522.24881936835, -1040.93276021213, -49931.0742877644, 0.00138383045498687, ]
  - [31100, -47979.5334013893, 1933.0631829478, -46046.4702184415, 1282.24535639704, 53.3444, 53.3444, 53.3444, 151798.158855992, 858.760802498243, 464.696487955892, 1330.04773106344, 781.538188475394, -49904.5836801815, 0.00144263158038501, ]
  - [31200, -47985.3617539849, 1961.15186482377, -46024.2098891612, 1300.87722638478, 53.3444, 53.3444, 53.3444, 151798.158855992, 601.961135020186, 413.810929819208, 1058.26823938563, 333.804235855723, -49922.3103894683, 0.00150331662056234, ]
  - [31300, -47979.3281371766, 1971.73622056221, -46007.5919166144, 1307.89807346096, 53.3444, 53.3444, 53.3444, 151798.158855992, 2241.97577221759, 1264.48516165877, 3464.69436222145, 1996.74779277255, -49908.8396732493, 0.00156592546949443, ]
  - [31400, -48006.1245680157, 1971.81276414126, -46034.3118038745, 1307.94884658088, 53.3444, 53.3444, 53.3444, 151798.158855992, -1413.00916038762, -1094.27258395787, -1300.47602565915, -1844.27887154583, -49884.7312733152, 0.00163049837566735, ]
  - [31500, -47996.3219508615, 1952.5433886826, -46043.7785621789, 1295.16702577932, 53.3444, 53.3444, 53.3444, 151798.158855992, -639.118081971318, -1321.41557759349, 47.8868771407422, -643.825545461198, -49857.9068810818, 0.00169707593755625, ]
  - [31600, -47992.0894508463, 1979.17864742789, -46012.9108034184, 1312.83480671057, 53.3444, 53.3444, 53.3444, 151798.158855992, 300.925550669923, -39.3248249035672, 672.317233574908, 269.784243338424, -49811.2443202002, 0.00176569909903396, ]
  - [31700, -47970.4947337524, 1967.3392999927, -46003.1554337597, 1304.98149472084, 53.3444, 53.3444, 53.3444, 151798.158855992, 2164.80077071521, 2777.74567246962, 2812.26629558652, 904.39034408949, -49852.7246009992, 0.0018364091447113, ]
[...]
  - [232600, -47989.4660901453, 1926.68697551442, -46062.7791146309, 1278.01587106774, 53.3444, 53.3444, 53.3444, 151798.158855992, -27.7958465373346, -805.386708911196, 700.615335045133, 21.383834254045, -49789.3078936481, 0.000216911211583102, ]
  - [232700, -48004.9775934555, 1938.08215713869, -46066.8954363168, 1285.57455763935, 53.3444, 53.3444, 53.3444, 151798.158855992, -1643.08817214574, -2311.72909405447, -1767.309116216, -850.226306166754, -49795.608495116, 0.000203362326959055, ]
  - [232800, -48000.160648807, 1963.13656749019, -46037.0240813168, 1302.19372540059, 53.3444, 53.3444, 53.3444, 151798.158855992, -1438.07312145364, -2106.84319271786, -1371.98533566285, -835.39083598022, -49830.4783885553, 0.000190480389068545, ]
  - [232900, -48001.5479409997, 1940.83840320549, -46060.7095377942, 1287.40283917273, 53.3444, 53.3444, 53.3444, 151798.158855992, -1311.94725552841, -1328.05957021306, -1895.15860194101, -712.623594431182, -49834.0290287236, 0.000178241940897418, ]
  - [233000, -47984.8805782863, 1947.59126898941, -46037.2893092969, 1291.88217066598, 53.3444, 53.3444, 53.3444, 151798.158855992, 589.384217288523, -70.307604262422, 155.231353729333, 1683.22890239866, -49825.637713211, 0.000166623985720989, ]
  - [233100, -47975.5285671672, 1968.53536586066, -46006.9932013065, 1305.77487277421, 53.3444, 53.3444, 53.3444, 151798.158855992, 736.372881521842, 1129.67487452066, 363.948079469232, 715.495690575634, -49809.8174686856, 0.000155603987394581, ]
  - [233200, -47995.8100507614, 1982.49137077639, -46013.3186799851, 1315.03221244883, 53.3444, 53.3444, 53.3444, 151798.158855992, -1268.05282163925, -1367.85701929409, -1610.68916013906, -825.61228548459, -49820.5399315487, 0.000145159870504403, ]
  - [233300, -47986.5661350728, 1973.29649563902, -46013.2696394338, 1308.93303987571, 53.3444, 53.3444, 53.3444, 151798.158855992, 807.817865306312, 772.777378803365, 1041.20644173923, 609.469775376335, -49829.4651209014, 0.000135270020376871, ]
  - [233400, -47997.4294523666, 1981.35186422334, -46016.0775881432, 1314.27635149244, 53.3444, 53.3444, 53.3444, 151798.158855992, -1456.82555986322, -1742.85516090224, -241.049591594052, -2386.57192709337, -49817.2850358953, 0.000125913282944476, ]
  - [233500, -47988.3400737873, 1957.44445750972, -46030.8956162775, 1298.41801767673, 53.3444, 53.3444, 53.3444, 151798.158855992, 180.242777473741, 55.3189396474084, -374.174188031128, 859.583580804933, -49766.6088764241, 0.000117068964466275, ]
  - [233600, -48002.1706852886, 1963.51030330636, -46038.6603819822, 1302.44163298014, 53.3444, 53.3444, 53.3444, 151798.158855992, -407.287869922724, -817.354147011604, 96.5204449729146, -501.029907729491, -49771.9993990036, 0.000108716831101108, ]
  - [233700, -47996.99812248, 1962.02243418894, -46034.9756882911, 1301.45469510684, 53.3444, 53.3444, 53.3444, 151798.158855992, -858.576778715569, -641.330750594512, -1107.95197721968, -826.447608332512, -49821.2108040216, 0.000100837108331576, ]
  - [233800, -47991.4113409723, 1953.50302322645, -46037.9083177459, 1295.80357348689, 53.3444, 53.3444, 53.3444, 151798.158855992, -962.141299808888, -1224.51502394359, 24.2915354795435, -1686.20041096262, -49850.5313329508, 9.34104802368709e-05, ]
  - [233900, -47990.3591477572, 1957.15007677034, -46033.2090709869, 1298.22274814834, 53.3444, 53.3444, 53.3444, 151798.158855992, 671.597764302794, 1059.3828712935, 256.768379503219, 698.642042111676, -49820.9492697693, 8.64180886124633e-05, ]
  - [234000, -48021.9185196741, 1965.2936864534, -46056.6248332207, 1303.62459211937, 53.3444, 53.3444, 53.3444, 151798.158855992, -2933.21725396843, -3294.07584516128, -3558.67122727141, -1946.90468947261, -49817.8681080398, 7.98415319347196e-05, ]
  - [234100, -47993.9045610678, 1950.56384689565, -46043.3407141721, 1293.85395009379, 53.3444, 53.3444, 53.3444, 151798.158855992, -392.474299906304, -150.298373479968, -152.607976153714, -874.516550085235, -49739.2824860872, 7.36628641684439e-05, ]
  - [234200, -47995.7928199149, 1947.36338000169, -46048.4294399132, 1291.73100664876, 53.3444, 53.3444, 53.3444, 151798.158855992, -104.939968475714, -310.042435583064, 974.919776816905, -979.697246660973, -49744.2040397194, 6.78645934153684e-05, ]
  - [234300, -47970.4633877436, 1949.34806198245, -46021.1153257612, 1293.04749194329, 53.3444, 53.3444, 53.3444, 151798.158855992, 1052.7990300614, 1672.47563599569, 1167.77180211786, 318.149652070644, -49776.718734881, 6.24296804015905e-05, ]
  - [234400, -48010.6068077251, 1964.14868342634, -46046.4581242988, 1302.8650852251, 53.3444, 53.3444, 53.3444, 151798.158855992, -2533.26110604232, -2177.6363163818, -3317.03828640523, -2105.10871533994, -49805.3094045272, 5.73415368019447e-05, ]
  - [234500, -47995.4431305195, 1911.9554611702, -46083.4876693493, 1268.24411811771, 53.3444, 53.3444, 53.3444, 151798.158855992, 435.286327949975, 1252.13636284239, -32.5995471999244, 86.3221682074578, -49787.935037941, 5.25840233992875e-05, ]
  - [234600, -47979.8282558781, 1958.64431843948, -46021.1839374386, 1299.21391308205, 53.3444, 53.3444, 53.3444, 151798.158855992, -98.8659896949899, 278.07916307286, -577.844364494502, 3.16723233668428, -49829.7768555117, 4.81414480766631e-05, ]
  - [234700, -48002.4109181233, 1969.35488336345, -46033.0560347599, 1306.31847761947, 53.3444, 53.3444, 53.3444, 151798.158855992, -1275.87736490307, -1322.27217824644, -2061.14739463855, -444.212521824215, -49825.8553711553, 4.39985636403036e-05, ]
  - [234800, -47996.7701113381, 1941.29683133328, -46055.4732800049, 1287.70692511431, 53.3444, 53.3444, 53.3444, 151798.158855992, -1318.07892319653, -1638.99512091512, -989.651314792927, -1325.59033388153, -49844.6937254295, 4.01405654714093e-05, ]
  - [234900, -47987.2349614531, 1947.79561367755, -46039.4393477755, 1292.01771720671, 53.3444, 53.3444, 53.3444, 151798.158855992, -372.512784597253, -1151.48377404648, -210.066482914601, 244.01190316933, -49814.3384565052, 3.65530890046418e-05, ]
  - [235000, -47980.6505172515, 1960.51699916557, -46020.1335180859, 1300.45610536331, 53.3444, 53.3444, 53.3444, 151798.158855992, 1185.34751401441, 962.518383374002, 1580.90353883824, 1012.62061983101, -49783.0173921954, 3.32222070312498e-05, ]
  - [235100, -48001.1865067416, 1984.7636747446, -46016.422831997, 1316.53948403585, 53.3444, 53.3444, 53.3444, 151798.158855992, -1026.98566276536, -275.445252326037, -854.345492797589, -1951.16624317246, -49807.7028936955, 3.01344268247407e-05, ]
  - [235200, -47980.3819921807, 1958.50794110462, -46021.8740510761, 1299.12345085305, 53.3444, 53.3444, 53.3444, 151798.158855992, 1180.41165349453, 851.720668993258, 1441.93589775169, 1247.57839373865, -49818.5978707322, 2.72766870869938e-05, ]
  - [235300, -47995.047260833, 1977.13945726066, -46017.9078035724, 1311.48216487981, 53.3444, 53.3444, 53.3444, 151798.158855992, -287.453557958609, 718.526471359733, -1090.72853908215, -490.158606153416, -49815.5994755245, 2.46363547127045e-05, ]
  - [235400, -47964.1549698087, 1973.23603885355, -45990.9189309551, 1308.89293749669, 53.3444, 53.3444, 53.3444, 151798.158855992, 2836.08447569693, 3506.10055521769, 2512.78018676602, 2489.37268510709, -49832.284127746, 2.22012213700348e-05, ]
  - [235500, -47975.017145535, 1971.81787333882, -46003.1992721962, 1307.95223562936, 53.3444, 53.3444, 53.3444, 151798.158855992, 578.562510642948, 512.314718086824, 1187.32567896391, 36.0471348781074, -49860.4133506758, 1.99594998953343e-05, ]
  - [235600, -48000.5936012703, 1968.46387146164, -46032.1297298087, 1305.72744889177, 53.3444, 53.3444, 53.3444, 151798.158855992, -980.70708581951, -818.245520877866, -924.532898004506, -1199.34283857616, -49884.5387392031, 1.78998204997852e-05, ]
  - [235700, -47982.7787830428, 1970.31433223423, -46012.4644508086, 1306.95490216581, 53.3444, 53.3444, 53.3444, 151798.158855992, 157.390151615892, 800.572829095794, 27.1659270941482, -355.568301342276, -49833.7101405352, 1.6011226785813e-05, ]
  - [235800, -47982.5052000155, 1962.0834156215, -46020.421784394, 1301.49514549636, 53.3444, 53.3444, 53.3444, 151798.158855992, 679.621882891072, 1220.37245762684, -249.357841152375, 1067.85103219875, -49819.8243299348, 1.42831715710918e-05, ]
  - [235900, -47972.7789469401, 1979.45298435438, -45993.3259625857, 1313.01678071596, 53.3444, 53.3444, 53.3444, 151798.158855992, 1486.08901216229, 1970.86293471284, 1261.12355520868, 1226.28054656535, -49837.9587975807, 1.27055125179639e-05, ]
  - [236000, -47994.6261720286, 1951.80518965273, -46042.8209823759, 1294.67736135112, 53.3444, 53.3444, 53.3444, 151798.158855992, -315.138066736265, -576.428584701801, 99.6915949449928, -468.677210451987, -49805.8008361352, 1.12685075660799e-05, ]
  - [236100, -47991.6376027839, 1932.98638036518, -46058.6512224187, 1282.19441147408, 53.3444, 53.3444, 53.3444, 151798.158855992, -49.4526742138551, -37.4910102346796, 40.8399372699883, -151.706949676872, -49753.9712632309, 9.96281016605479e-06, ]
  - [236200, -47980.3190609265, 1943.39679995574, -46036.9222609708, 1289.09988269504, 53.3444, 53.3444, 53.3444, 151798.158855992, 643.135316984909, 159.81964740943, 720.206920233887, 1049.37938331141, -49746.4045530273, 8.77946431192305e-06, ]
  - [236300, -47977.6000630704, 1968.76954765978, -46008.8305154106, 1305.93021095826, 53.3444, 53.3444, 53.3444, 151798.158855992, 1387.07995283214, 1420.85408652414, 993.832398059234, 1746.55337391305, -49752.0496855434, 7.70989937016554e-06, ]
  - [236400, -48001.6014064435, 1949.49548254017, -46052.1059239033, 1293.14527939651, 53.3444, 53.3444, 53.3444, 151798.158855992, -1188.2517620442, -338.579796684118, -1725.60128327001, -1500.57420617847, -49807.4420765824, 6.74592470306788e-06, ]
  - [236500, -47976.039187747, 1973.90999913987, -46002.1291886072, 1309.33999088592, 53.3444, 53.3444, 53.3444, 151798.158855992, 996.349292348282, 1656.87146672156, 492.259830732558, 839.916579590721, -49793.4287736736, 5.87972408415909e-06, ]
  - [236600, -47974.5455547251, 1993.41392682971, -45981.1316278954, 1322.27739558765, 53.3444, 53.3444, 53.3444, 151798.158855992, 1133.1722595512, 1749.00587763293, 1975.9815738856, -325.470672864938, -49838.5214484566, 5.10384990346715e-06, ]
  - [236700, -47973.2101415801, 1968.11753184143, -46005.0926097387, 1305.49771384033, 53.3444, 53.3444, 53.3444, 151798.158855992, 622.88381806439, 681.309768964984, 670.877571876646, 516.464113351542, -49839.133935127, 4.41121716031669e-06, ]
  - [236800, -47987.452133272, 1967.02393094544, -46020.4282023266, 1304.77230316416, 53.3444, 53.3444, 53.3444, 151798.158855992, 714.977658114925, 1656.93844635735, 1216.13869254655, -728.144164559126, -49827.548996192, 3.79509724138197e-06, ]
  - [236900, -47989.7180049822, 1939.58417596267, -46050.1338290195, 1286.5708813391, 53.3444, 53.3444, 53.3444, 151798.158855992, -786.654024498224, -1008.96903282248, -645.938816193086, -705.054224479114, -49853.555258163, 3.24911148169665e-06, ]
  - [237000, -48023.869533986, 1953.60709546306, -46070.2624385229, 1295.87260699976, 53.3444, 53.3444, 53.3444, 151798.158855992, -3461.94174585494, -2394.34220002099, -4100.85143471659, -3890.63160282722, -49845.8729339333, 2.76722450630996e-06, ]
  - [237100, -48011.7286383722, 1948.21028733962, -46063.5183510326, 1292.29277980286, 53.3444, 53.3444, 53.3444, 151798.158855992, -2099.23878743961, -1944.31917288492, -1103.72232957576, -3249.67485985813, -49845.5492025804, 2.34373735026696e-06, ]
  - [237200, -47996.2233184956, 1938.97021043329, -46057.2531080623, 1286.16362385472, 53.3444, 53.3444, 53.3444, 151798.158855992, -1002.80851400545, -1160.7421613123, -57.8375769216123, -1789.84580378243, -49824.7098634662, 1.97328035457889e-06, ]
  - [237300, -47975.8329975207, 1969.70349330984, -46006.1295042109, 1306.54971863057, 53.3444, 53.3444, 53.3444, 151798.158855992, 998.190319466979, 1612.79946252821, 511.354086777894, 870.417409094829, -49857.9113012023, 1.65080583583743e-06, ]
  - [237400, -47988.8089786992, 1960.6794402016, -46028.1295384976, 1300.56385624594, 53.3444, 53.3444, 53.3444, 151798.158855992, 381.361787983117, -520.14864841825, 1055.77762387521, 608.456388492387, -49835.700175582, 1.37158052711493e-06, ]
  - [237500, -47982.6072044294, 1969.36708887473, -46013.2401155547, 1306.32657381637, 53.3444, 53.3444, 53.3444, 151798.158855992, 1547.63166904013, 1825.86396292737, 1945.43919902095, 871.591845172074, -49833.172726228, 1.13117778778074e-06, ]
  - [237600, -47999.7231299882, 1958.13110849376, -46041.5920214944, 1298.87348909822, 53.3444, 53.3444, 53.3444, 151798.158855992, -1179.25235130907, -199.705651409832, -2156.36524851227, -1181.68615400511, -49874.6132619711, 9.25469579851505e-07, ]
  - [237700, -47994.4186641718, 1962.94390168409, -46031.4747624877, 1302.06592573145, 53.3444, 53.3444, 53.3444, 151798.158855992, -91.3392180575682, 932.406957613974, -682.64138208932, -523.783229697359, -49858.5645574197, 7.50618208481688e-07, ]
  - [237800, -47983.9266824139, 1943.28264740675, -46040.6440350072, 1289.02416267867, 53.3444, 53.3444, 53.3444, 151798.158855992, 935.296625366188, 1922.12664469115, 1036.84968108824, -153.086449680827, -49855.5727763808, 6.03067824188189e-07, ]
  - [237900, -48014.8083767584, 1952.12105527647, -46062.6873214819, 1294.88688229842, 53.3444, 53.3444, 53.3444, 151798.158855992, -1972.11188579334, -2047.53687149451, -1717.19498569474, -2151.60380019076, -49864.8332407323, 4.79535684391034e-07, ]
  - [238000, -47977.9623814453, 1937.00090805879, -46040.9614733865, 1284.85734020744, 53.3444, 53.3444, 53.3444, 151798.158855992, 1168.75855079994, 1765.33005600928, 888.953697009606, 851.991899380926, -49838.6034939801, 3.77003171839991e-07, ]
  - [238100, -47968.8220569723, 1942.82988254399, -46025.9921744283, 1288.7238333113, 53.3444, 53.3444, 53.3444, 151798.158855992, 2134.77128295262, 1988.3428669295, 1953.08210232652, 2462.88887960183, -49825.3513459733, 2.92706567484834e-07, ]
  - [238200, -47988.9158187142, 1958.2790989808, -46030.6367197334, 1298.97165459869, 53.3444, 53.3444, 53.3444, 151798.158855992, 8.20253970321586, -77.92831096446, 284.055711171815, -181.519781097713, -49847.6667518009, 2.24127575334843e-07, ]
  - [238300, -47972.7586455192, 1938.79030473236, -46033.9683407869, 1286.04428825739, 53.3444, 53.3444, 53.3444, 151798.158855992, 1168.5039095886, 957.343389161341, 1685.190179769, 862.978159835468, -49883.0986889277, 1.68983596840973e-07, ]
  - [238400, -48000.9510132348, 1959.09624423634, -46041.8547689985, 1299.51368587768, 53.3444, 53.3444, 53.3444, 151798.158855992, -422.53765084124, -848.905475457183, -1295.3693024086, 876.661825342057, -49860.300040017, 1.25217752321901e-07, ]
  - [238500, -47984.2237415868, 1960.58861908663, -46023.6351225002, 1300.50361250742, 53.3444, 53.3444, 53.3444, 151798.158855992, 773.160276970209, 1016.56583729336, 1480.7683460606, -177.853352443339, -49859.8263010662, 9.09886469429854e-08, ]
  - [238600, -47989.6831967233, 1970.67179519772, -46019.0114015256, 1307.19201558717, 53.3444, 53.3444, 53.3444, 151798.158855992, 173.3433130189, 905.119389439637, -908.278612450097, 523.189162067163, -49871.8044432163, 6.46598787448784e-08, ]
  - [238700, -47998.6189675453, 1949.62517544964, -46048.9937920956, 1293.23130769212, 53.3444, 53.3444, 53.3444, 151798.158855992, -1184.23381254754, -750.929408405154, -2175.65765220765, -626.114377029818, -49913.2965204172, 4.47892862063161e-08, ]
  - [238800, -47991.7861359693, 1965.77206270189, -46026.0140732674, 1303.9419101091, 53.3444, 53.3444, 53.3444, 151798.158855992, -43.9636503569445, 104.795077409808, -554.822328235062, 318.136299754418, -49916.3059233292, 3.01179328132691e-08, ]
  - [238900, -47961.8809535405, 1974.763162999, -45987.1177905415, 1309.90591413472, 53.3444, 53.3444, 53.3444, 151798.158855992, 2629.8768933658, 2617.83847196622, 2207.05303643212, 3064.73917169905, -49933.1583369255, 1.95588260943479e-08, ]
  - [239000, -47988.1446685888, 1961.70202681287, -46026.442641776, 1301.24216151055, 53.3444, 53.3444, 53.3444, 151798.158855992, 146.354379098176, 83.9872323432357, 379.613100401403, -24.5371954501105, -50003.2802809742, 1.21853685699994e-08, ]
  - [239100, -47990.6702016309, 1939.97051604759, -46050.6996855833, 1286.82714962057, 53.3444, 53.3444, 53.3444, 151798.158855992, 419.270760797316, 796.99591818902, 129.014796730029, 331.801567472903, -50043.6066931123, 7.21953805066191e-09, ]
  - [239200, -48006.3678097301, 1957.69620000291, -46048.6716097272, 1298.58500427384, 53.3444, 53.3444, 53.3444, 151798.158855992, -1687.52992785547, -1517.62952678132, -1331.45540189873, -2213.50485488635, -50051.0781917351, 4.01979470665194e-09, ]
  - [239300, -47995.7510552818, 1944.89722412569, -46050.8538311561, 1290.09514862402, 53.3444, 53.3444, 53.3444, 151798.158855992, -89.7284692094838, -14.9788533887802, -613.506996358342, 359.300442118666, -50062.4288059573, 2.06871232013228e-09, ]
  - [239400, -47968.1634551002, 1952.78026914089, -46015.3831859593, 1295.32415404618, 53.3444, 53.3444, 53.3444, 151798.158855992, 1553.63458644819, 1627.04996708567, 810.49331826708, 2223.36047399182, -50060.687194026, 9.60331117066315e-10, ]
  - [239500, -47981.3657577742, 1950.06219873486, -46031.3035590393, 1293.52119530833, 53.3444, 53.3444, 53.3444, 151798.158855992, 226.581388503112, -20.1134486203439, 137.054374988025, 562.803239141647, -50056.6460012787, 3.87229564589803e-10, ]
  - [239600, -47999.393780751, 1953.02456420727, -46046.3692165438, 1295.48620059345, 53.3444, 53.3444, 53.3444, 151798.158855992, -828.565372585016, -960.728970561919, -775.780242683563, -749.186904509564, -49999.9433291642, 1.27312506734493e-10, ]
  - [239700, -47982.9497639836, 1940.08288998829, -46042.8668739953, 1286.90168984508, 53.3444, 53.3444, 53.3444, 151798.158855992, 1472.55800288066, 1132.88999024574, 2086.3547016917, 1198.42931670453, -49956.6632459559, 3.03129989146573e-11, ]
  - [239800, -47978.8597974065, 1954.55033151813, -46024.3094658883, 1296.49827721182, 53.3444, 53.3444, 53.3444, 151798.158855992, 1644.1897594643, 2387.7174527659, 1138.6872435298, 1406.16458209721, -49949.2837195863, 4.00518903939475e-12, ]
  - [239900, -48005.8252181906, 1979.14911006107, -46026.6761081295, 1312.81521389447, 53.3444, 53.3444, 53.3444, 151798.158855992, -1329.38734168538, -1085.26496155638, -2067.23008425041, -835.666979249346, -49969.080892207, 1.25580539685001e-13, ]
  - [240000, -47989.8519929444, 1946.08554834498, -46043.7664445994, 1290.88339146342, 53.3444, 53.3444, 53.3444, 151798.158855992, -407.239723805892, -199.577792462581, -905.124699330113, -117.016679624983, -49960.6186871834, 0, ]
...
Loop time of 130.781 on 64 procs for 100000 steps with 11664 atoms

Performance: 66.065 ns/day, 0.363 hours/ns, 764.636 timesteps/s, 8.919 Matom-step/s
71.1% CPU use with 64 MPI tasks x 1 OpenMP threads

MPI task timing breakdown:
Section |  min time  |  avg time  |  max time  |%varavg| %total
---------------------------------------------------------------
Pair    | 66.183     | 67.336     | 68.704     |   6.9 | 51.49
Neigh   | 0.49193    | 0.50427    | 0.54204    |   1.2 |  0.39
Comm    | 19.031     | 20.302     | 21.602     |  12.5 | 15.52
Output  | 0.34349    | 0.381      | 0.38222    |   0.8 |  0.29
Modify  | 13.028     | 13.766     | 40.895     |  92.2 | 10.53
Other   |            | 28.49      |            |       | 21.79

Nlocal:         182.25 ave         198 max         168 min
Histogram: 2 2 6 9 14 11 14 3 2 1
Nghost:        1271.72 ave        1283 max        1249 min
Histogram: 1 0 0 1 5 16 13 15 6 7
Neighs:        7096.45 ave        7869 max        6427 min
Histogram: 3 1 8 11 13 15 7 5 0 1

Total # of neighbors = 454173
Ave neighs/atom = 38.938014
Neighbor list builds = 1334
Dangerous builds = 0
#------------------------------------------------------------------------------#
Total wall time: 0:05:01
