LAMMPS (2 Aug 2023)
OMP_NUM_THREADS environment is not set. Defaulting to 1 thread. (src/comm.cpp:98)
  using 1 OpenMP thread(s) per MPI task
#--------------------------- Simulation variables -----------------------------#
# Initalizes the random number generator.
variable RND equal round(random(0,999,${RANDOM}))
variable RND equal round(random(0,999,1))

# Simulation control parameters.
variable t_eq equal 20000 # Equilibration time.
variable t equal 100000 # Switching time.

#---------------------------- Atomic setup ------------------------------------#
units            metal
# Create atoms.
lattice          bcc ${a}
lattice          bcc 2.958788888888889
Lattice spacing in x,y,z = 2.9587889 2.9587889 2.9587889
region           sim_box block 0 18 0 18 0 18
create_box       1 sim_box
Created orthogonal box = (0 0 0) to (53.2582 53.2582 53.2582)
  4 by 4 by 4 MPI processor grid
create_atoms     1 box
Created 11664 atoms
  using lattice units in orthogonal box = (0 0 0) to (53.2582 53.2582 53.2582)
  create_atoms CPU = 0.001 seconds

# Define interatomic potential.
pair_style       eam
pair_coeff       * * ../Fe.eam
#----------------------------- Run simulation ---------------------------------#
# Initial temperature to accelerate equilibration.
velocity all create ${T} ${RND} mom yes rot yes dist gaussian
velocity all create 1200 ${RND} mom yes rot yes dist gaussian
velocity all create 1200 80 mom yes rot yes dist gaussian

# Integrator, Frenkel-Ladd modifier, and thermostat.
fix fe all nve
fix fti all ti/spring ${k} ${t} ${t_eq} function 2
fix fti all ti/spring 3.044456195725137 ${t} ${t_eq} function 2
fix fti all ti/spring 3.044456195725137 100000 ${t_eq} function 2
fix fti all ti/spring 3.044456195725137 100000 20000 function 2
fix ft all langevin ${T} ${T} 0.1 ${RND} zero yes
fix ft all langevin 1200 ${T} 0.1 ${RND} zero yes
fix ft all langevin 1200 1200 0.1 ${RND} zero yes
fix ft all langevin 1200 1200 0.1 178 zero yes
compute tcom all temp/com
fix_modify ft temp tcom

# Setup thermo output.
variable dE equal pe-f_fti
variable lambda equal f_fti[1]

thermo_style custom step pe ke etotal temp lx ly lz vol press pxx pyy pzz v_dE v_lambda
thermo 100
thermo_modify line yaml
thermo_modify flush yes

# Forward integration.
run ${t_eq}
run 20000

CITE-CITE-CITE-CITE-CITE-CITE-CITE-CITE-CITE-CITE-CITE-CITE-CITE

Your simulation uses code contributions which should be cited:

- ti/spring command: doi:10.1016/j.commatsci.2015.10.050

@article{freitas2016,
  author={Freitas, Rodrigo and Asta, Mark and de Koning, Maurice},
  title={Nonequilibrium Free-Energy Calculation of Solids Using {LAMMPS}},
  journal={Computational Materials Science},
  volume={112},
  pages={333--341},
  year={2016},
  publisher={Elsevier}
}

CITE-CITE-CITE-CITE-CITE-CITE-CITE-CITE-CITE-CITE-CITE-CITE-CITE

Neighbor list info ...
  update: every = 1 steps, delay = 0 steps, check = yes
  max neighbors/atom: 2000, page size: 100000
  master list distance cutoff = 6.409104
  ghost atom cutoff = 6.409104
  binsize = 3.204552, bins = 17 17 17
  1 neighbor lists, perpetual/occasional/extra = 1 0 0
  (1) pair eam, perpetual
      attributes: half, newton on
      pair build: half/bin/atomonly/newton
      stencil: half/bin/3d
      bin: standard
Per MPI rank memory allocation (min/avg/max) = 3.724 | 3.732 | 3.736 Mbytes
---
keywords: ['Step', 'PotEng', 'KinEng', 'TotEng', 'Temp', 'Lx', 'Ly', 'Lz', 'Volume', 'Press', 'Pxx', 'Pyy', 'Pzz', 'v_dE', 'v_lambda', ]
data:
  - [0, -49443.5054151504, 1809.073285362, -47634.4321297884, 1200, 53.2582, 53.2582, 53.2582, 151063.468704641, -134719.777990676, -134579.115863818, -134808.470735961, -134771.747372249, -49443.5054151504, 0, ]
  - [100, -48319.9822686218, 1537.69723519713, -46782.2850334246, 1019.99001210574, 53.2582, 53.2582, 53.2582, 151063.468704641, -18120.1020771913, -18471.2965391066, -17002.5536136864, -18886.4560787809, -48319.9822686218, 0, ]
  - [200, -48208.3971474308, 1738.45734796929, -46469.9397994616, 1153.15882139385, 53.2582, 53.2582, 53.2582, 151063.468704641, -6325.46595618005, -6948.96396484893, -6415.47005133338, -5611.96385235785, -48208.3971474308, 0, ]
  - [300, -48151.7990320254, 1770.70475941435, -46381.0942726111, 1174.54927254207, 53.2582, 53.2582, 53.2582, 151063.468704641, -1144.9969915801, -1396.14243504671, -567.48540335003, -1471.36313634355, -48151.7990320254, 0, ]
  - [400, -48158.4098478794, 1794.82850610938, -46363.58134177, 1190.55110965296, 53.2582, 53.2582, 53.2582, 151063.468704641, -1342.579866979, -1341.10981592647, -1701.4798648027, -985.149920207816, -48158.4098478794, 0, ]
  - [500, -48149.4143340143, 1798.97048949041, -46350.4438445239, 1193.29858268097, 53.2582, 53.2582, 53.2582, 151063.468704641, -138.201599535628, -380.13497550036, -635.877305297247, 601.407482190719, -48149.4143340143, 0, ]
  - [600, -48164.5274843122, 1783.59138296447, -46380.9361013477, 1183.09726691314, 53.2582, 53.2582, 53.2582, 151063.468704641, -1731.31020160848, -2175.69321704971, -2496.04119438441, -522.196193391316, -48164.5274843122, 0, ]
  - [700, -48166.4226567718, 1796.65967675941, -46369.7629800124, 1191.76576734417, 53.2582, 53.2582, 53.2582, 151063.468704641, -1490.95141559815, -1104.13315712198, -2470.76485805693, -897.956231615542, -48166.4226567718, 0, ]
  - [800, -48150.2069472377, 1808.17613537909, -46342.0308118586, 1199.40489974165, 53.2582, 53.2582, 53.2582, 151063.468704641, -728.126783532493, -968.214578242625, -833.439180337237, -382.726592017621, -48150.2069472377, 0, ]
  - [900, -48145.8644504439, 1818.84871241272, -46327.0157380312, 1206.48426603598, 53.2582, 53.2582, 53.2582, 151063.468704641, 219.755472242087, 141.720171660972, 942.856258755432, -425.310013690137, -48145.8644504439, 0, ]
  - [1000, -48156.919255419, 1811.83028969587, -46345.0889657232, 1201.8287845094, 53.2582, 53.2582, 53.2582, 151063.468704641, -426.971407126147, -750.483522416033, -268.224023579951, -262.206675382451, -48156.919255419, 0, ]
  - [1100, -48146.5282187473, 1804.70664710666, -46341.8215716407, 1197.10350821672, 53.2582, 53.2582, 53.2582, 151063.468704641, -613.093479691997, -1451.21709944368, -38.7421407413323, -349.321198890967, -48146.5282187473, 0, ]
  - [1200, -48157.1641465711, 1814.18401475863, -46342.9801318125, 1203.39006458477, 53.2582, 53.2582, 53.2582, 151063.468704641, -1105.94990377648, -1756.7983910012, -535.437584551449, -1025.6137357768, -48157.1641465711, 0, ]
  - [1300, -48132.8532428198, 1826.46098863857, -46306.3922541812, 1211.53366428033, 53.2582, 53.2582, 53.2582, 151063.468704641, 1897.60933942183, 1775.29080784251, 2701.4402841953, 1216.09692622769, -48132.8532428198, 0, ]
  - [1400, -48139.315530692, 1783.74562216251, -46355.5699085295, 1183.19957732763, 53.2582, 53.2582, 53.2582, 151063.468704641, 183.566688049937, 432.410933584789, 250.74561681157, -132.456486246541, -48139.315530692, 0, ]
  - [1500, -48147.1230353302, 1805.99756950014, -46341.1254658301, 1197.95980678942, 53.2582, 53.2582, 53.2582, 151063.468704641, -9.78423293038449, 220.448392838626, -721.877786378092, 472.07669474831, -48147.1230353302, 0, ]
  - [1600, -48143.3788686601, 1787.63280977928, -46355.7460588808, 1185.77803845348, 53.2582, 53.2582, 53.2582, 151063.468704641, 369.848808327687, 70.3844055788192, 511.248752297273, 527.913267106968, -48143.3788686601, 0, ]
  - [1700, -48155.3553798223, 1800.61266608969, -46354.7427137326, 1194.38787626299, 53.2582, 53.2582, 53.2582, 151063.468704641, -796.524386528064, 460.008575281432, -1668.42702761312, -1181.15470725251, -48155.3553798223, 0, ]
  - [1800, -48158.1612071104, 1812.86831063725, -46345.2928964732, 1202.51732772085, 53.2582, 53.2582, 53.2582, 151063.468704641, -971.734674303098, -459.53470725953, -1098.28823589875, -1357.38107975101, -48158.1612071104, 0, ]
  - [1900, -48136.7518751713, 1808.96907272566, -46327.7828024457, 1199.93087335675, 53.2582, 53.2582, 53.2582, 151063.468704641, 880.241609132247, 1091.36014243817, 1051.37316598778, 497.991518970789, -48136.7518751713, 0, ]
  - [2000, -48172.314797587, 1823.94926462557, -46348.3655329614, 1209.86757986021, 53.2582, 53.2582, 53.2582, 151063.468704641, -2882.42357622991, -1575.39846320415, -3298.33956044801, -3773.53270503756, -48172.314797587, 0, ]
  - [2100, -48164.6101142906, 1801.2267815709, -46363.3833327197, 1194.79523321387, 53.2582, 53.2582, 53.2582, 151063.468704641, -1926.43182255203, -2490.25171081173, -2158.10280655801, -1130.94095028636, -48164.6101142906, 0, ]
  - [2200, -48138.8793169517, 1805.99597083317, -46332.8833461185, 1197.95874635678, 53.2582, 53.2582, 53.2582, 151063.468704641, 947.450452684425, 308.688536481279, 996.43073813097, 1537.23208344102, -48138.8793169517, 0, ]
  - [2300, -48157.5240883687, 1811.48979026522, -46346.0342981035, 1201.6029233903, 53.2582, 53.2582, 53.2582, 151063.468704641, -1246.87592626764, -815.724534161277, -1727.86211587015, -1197.04112877148, -48157.5240883687, 0, ]
  - [2400, -48159.1433604634, 1808.96392021208, -46350.1794402513, 1199.92745557576, 53.2582, 53.2582, 53.2582, 151063.468704641, -948.822627432695, -163.382646582763, -1696.21998297139, -986.865252743926, -48159.1433604634, 0, ]
  - [2500, -48148.5224623808, 1804.00814851436, -46344.5143138665, 1196.64017800365, 53.2582, 53.2582, 53.2582, 151063.468704641, -133.015192779346, 508.051760806343, -605.863691630663, -301.233647513718, -48148.5224623808, 0, ]
  - [2600, -48160.0984702946, 1776.58120195382, -46383.5172683408, 1178.44725230022, 53.2582, 53.2582, 53.2582, 151063.468704641, -1282.44499481222, -1425.04853158272, -379.831126502205, -2042.45532635174, -48160.0984702946, 0, ]
  - [2700, -48136.0678127425, 1795.31861379037, -46340.7491989521, 1190.87620937222, 53.2582, 53.2582, 53.2582, 151063.468704641, 1799.04608140345, 1579.42027759284, 2484.96837720325, 1332.74958941426, -48136.0678127425, 0, ]
  - [2800, -48141.2185188036, 1804.42404665824, -46336.7944721453, 1196.9160528268, 53.2582, 53.2582, 53.2582, 151063.468704641, 605.43601971023, -21.7734018138546, 1692.26974440024, 145.811716544315, -48141.2185188036, 0, ]
  - [2900, -48148.2361817484, 1797.65499124267, -46350.5811905058, 1192.42598237779, 53.2582, 53.2582, 53.2582, 151063.468704641, -297.250275833613, -1912.50867477157, 875.226574506214, 145.53127276452, -48148.2361817484, 0, ]
  - [3000, -48161.7812848537, 1800.94936550549, -46360.8319193482, 1194.61121674468, 53.2582, 53.2582, 53.2582, 151063.468704641, -980.7090461235, -1051.94158958355, -1298.32039463276, -591.865154154186, -48161.7812848537, 0, ]
  - [3100, -48144.3533292006, 1812.16589748097, -46332.1874317196, 1202.05140088729, 53.2582, 53.2582, 53.2582, 151063.468704641, 1030.74985636263, 459.05462404296, 1409.20822407277, 1223.98672097216, -48144.3533292006, 0, ]
  - [3200, -48145.7313826765, 1821.36300446467, -46324.3683782119, 1208.15205389551, 53.2582, 53.2582, 53.2582, 151063.468704641, 560.040378618862, -19.483157838449, 773.648379166362, 925.955914528673, -48145.7313826765, 0, ]
  - [3300, -48162.8593435955, 1808.67127854711, -46354.1880650484, 1199.7333396155, 53.2582, 53.2582, 53.2582, 151063.468704641, -1217.30680485671, -999.414869975105, -1808.529839255, -843.975705340029, -48162.8593435955, 0, ]
  - [3400, -48137.6531606726, 1795.32780269059, -46342.3253579821, 1190.88230458149, 53.2582, 53.2582, 53.2582, 151063.468704641, 1036.57041532301, 1549.31323421793, 883.804519462432, 676.593492288671, -48137.6531606726, 0, ]
  - [3500, -48118.4814687811, 1788.20483714357, -46330.2766316375, 1186.15747738649, 53.2582, 53.2582, 53.2582, 151063.468704641, 2117.33257992251, 2499.13179630165, 1514.95424998573, 2337.91169348016, -48118.4814687811, 0, ]
  - [3600, -48142.9662018007, 1802.38997085236, -46340.5762309484, 1195.56680346979, 53.2582, 53.2582, 53.2582, 151063.468704641, 1369.41925136561, 1089.13304048644, 1367.96268306961, 1651.16203054077, -48142.9662018007, 0, ]
  - [3700, -48150.9079131141, 1828.55239937977, -46322.3555137343, 1212.92094522122, 53.2582, 53.2582, 53.2582, 151063.468704641, 265.009025298733, -802.601638851219, 173.808489895957, 1423.82022485146, -48150.9079131141, 0, ]
  - [3800, -48139.8728673832, 1823.38943710541, -46316.4834302778, 1209.49623336495, 53.2582, 53.2582, 53.2582, 151063.468704641, 1111.22647305311, 797.613249408253, 1402.25710045154, 1133.80906929954, -48139.8728673832, 0, ]
  - [3900, -48143.544981868, 1820.12626744802, -46323.41871442, 1207.33169773195, 53.2582, 53.2582, 53.2582, 151063.468704641, -31.8330337960302, -16.7780023163647, -618.070733577555, 539.349634505827, -48143.544981868, 0, ]
  - [4000, -48147.6334192796, 1801.90803918769, -46345.7253800919, 1195.24712709057, 53.2582, 53.2582, 53.2582, 151063.468704641, -97.6593993651023, 86.6396938378928, -418.799968281473, 39.1820763482714, -48147.6334192796, 0, ]
  - [4100, -48137.8705446749, 1810.56751406474, -46327.3030306101, 1200.9911563328, 53.2582, 53.2582, 53.2582, 151063.468704641, 1284.80422579761, 1593.18229544366, 1564.41025166345, 696.820130285727, -48137.8705446749, 0, ]
  - [4200, -48152.4136518496, 1798.57223437849, -46353.8414174711, 1193.03441088751, 53.2582, 53.2582, 53.2582, 151063.468704641, -360.185339633887, -475.836175451774, 215.008567202227, -819.728410652117, -48152.4136518496, 0, ]
  - [4300, -48168.7979324889, 1834.09075423347, -46334.7071782554, 1216.59466362622, 53.2582, 53.2582, 53.2582, 151063.468704641, -2022.86687851859, -2132.75856145002, -2223.50074450395, -1712.34132960182, -48168.7979324889, 0, ]
  - [4400, -48155.7895460101, 1798.28682044286, -46357.5027255673, 1192.84508924669, 53.2582, 53.2582, 53.2582, 151063.468704641, -1415.31027653792, -1457.39838587269, -806.269210405246, -1982.26323333583, -48155.7895460101, 0, ]
  - [4500, -48161.1446954804, 1830.56425725668, -46330.5804382237, 1214.25545691393, 53.2582, 53.2582, 53.2582, 151063.468704641, -1520.36795019563, -627.19548316617, -1743.95262109705, -2189.95574632366, -48161.1446954804, 0, ]
  - [4600, -48165.6563664751, 1817.99839893109, -46347.657967544, 1205.92023350826, 53.2582, 53.2582, 53.2582, 151063.468704641, -1511.12428236415, -1329.85015801546, -1404.48909707383, -1799.03359200313, -48165.6563664751, 0, ]
  - [4700, -48167.4134029374, 1815.44140564397, -46351.9719972934, 1204.22412093539, 53.2582, 53.2582, 53.2582, 151063.468704641, -2218.57639811904, -2352.10893643799, -1984.81885652304, -2318.80140139611, -48167.4134029374, 0, ]
  - [4800, -48150.8437294811, 1806.94795302578, -46343.8957764553, 1198.59021808342, 53.2582, 53.2582, 53.2582, 151063.468704641, 67.7888491700734, 172.572788460313, 130.330303303899, -99.5365442539946, -48150.8437294811, 0, ]
  - [4900, -48140.9040002383, 1791.86778141991, -46349.0362188184, 1188.58719273699, 53.2582, 53.2582, 53.2582, 151063.468704641, 563.615241746547, 557.902973992598, 1351.35485834158, -218.412107094534, -48140.9040002383, 0, ]
  - [5000, -48159.7459219659, 1808.0717315066, -46351.6741904593, 1199.33564624705, 53.2582, 53.2582, 53.2582, 151063.468704641, -1123.7121437431, -699.36882475723, -1190.30849514266, -1481.4591113294, -48159.7459219659, 0, ]
  - [5100, -48152.1291196312, 1790.6123795174, -46361.5167401138, 1187.7544557245, 53.2582, 53.2582, 53.2582, 151063.468704641, -74.9341638691745, -231.929765360683, 571.579290757526, -564.452017004365, -48152.1291196312, 0, ]
  - [5200, -48175.0985285497, 1808.45473538647, -46366.6437931632, 1199.58970154684, 53.2582, 53.2582, 53.2582, 151063.468704641, -2592.00283667249, -1902.19653822129, -2734.56293214745, -3139.24903964875, -48175.0985285497, 0, ]
  - [5300, -48150.6511568368, 1811.87267147458, -46338.7784853622, 1201.8568973199, 53.2582, 53.2582, 53.2582, 151063.468704641, -1083.80696570626, -541.049111915562, -1039.56825396658, -1670.80353123663, -48150.6511568368, 0, ]
  - [5400, -48144.9379303128, 1818.99488914287, -46325.9430411699, 1206.5812284297, 53.2582, 53.2582, 53.2582, 151063.468704641, 712.189348267315, -170.91743637879, 1634.3614012932, 673.124079887529, -48144.9379303128, 0, ]
  - [5500, -48127.7989822005, 1816.39170496355, -46311.4072772369, 1204.85447637358, 53.2582, 53.2582, 53.2582, 151063.468704641, 1949.08859560042, 1250.3067410488, 2051.00904075842, 2545.95000499404, -48127.7989822005, 0, ]
  - [5600, -48125.6897772635, 1809.54875866225, -46316.1410186012, 1200.31539239726, 53.2582, 53.2582, 53.2582, 151063.468704641, 1972.59441722698, 1703.80008135709, 2223.20832335075, 1990.7748469731, -48125.6897772635, 0, ]
  - [5700, -48132.5805627592, 1806.81342506776, -46325.7671376915, 1198.50098258869, 53.2582, 53.2582, 53.2582, 151063.468704641, 1930.29938096778, 2325.95293967122, 2206.41034303308, 1258.53486019903, -48132.5805627592, 0, ]
  - [5800, -48151.5217535018, 1808.93596055159, -46342.5857929502, 1199.90890928863, 53.2582, 53.2582, 53.2582, 151063.468704641, -117.940325250601, 567.109336835566, -314.307372070746, -606.622940516634, -48151.5217535018, 0, ]
  - [5900, -48147.6865850556, 1799.39259325796, -46348.2939917976, 1193.57857383731, 53.2582, 53.2582, 53.2582, 151063.468704641, -285.654108758995, -371.743880794605, 598.175260974005, -1083.39370645638, -48147.6865850556, 0, ]
  - [6000, -48139.9351202445, 1824.17708583691, -46315.7580344076, 1210.0186989198, 53.2582, 53.2582, 53.2582, 151063.468704641, 463.527268926221, 292.343681903051, 907.95106404316, 190.287060832447, -48139.9351202445, 0, ]
  - [6100, -48141.9931325695, 1820.49958684001, -46321.4935457295, 1207.57932908775, 53.2582, 53.2582, 53.2582, 151063.468704641, 522.409080508222, 874.097257366436, 811.126243846232, -117.996259687999, -48141.9931325695, 0, ]
  - [6200, -48151.3422654959, 1789.38290068303, -46361.9593648129, 1186.93891408051, 53.2582, 53.2582, 53.2582, 151063.468704641, -531.212310991748, 335.93967345963, -1377.79352725639, -551.78307917848, -48151.3422654959, 0, ]
  - [6300, -48146.9530659817, 1793.23105509492, -46353.7220108868, 1189.49148358205, 53.2582, 53.2582, 53.2582, 151063.468704641, -846.210285001518, -457.038146360982, -1165.01334807574, -916.579360567832, -48146.9530659817, 0, ]
  - [6400, -48156.1863140576, 1818.65401748228, -46337.5322965754, 1206.3551204019, 53.2582, 53.2582, 53.2582, 151063.468704641, -804.445841151356, -68.5187414980516, -1596.29171526473, -748.52706669129, -48156.1863140576, 0, ]
  - [6500, -48130.491910323, 1821.58201420544, -46308.9098961176, 1208.29732810361, 53.2582, 53.2582, 53.2582, 151063.468704641, 1176.622834711, 1587.6264285552, 685.506838455744, 1256.73523712206, -48130.491910323, 0, ]
  - [6600, -48139.9736183324, 1823.75950572882, -46316.2141126035, 1209.74170841103, 53.2582, 53.2582, 53.2582, 151063.468704641, 843.061036209384, 1186.21684448979, 941.726664992055, 401.2395991463, -48139.9736183324, 0, ]
  - [6700, -48154.3382710465, 1812.06510912663, -46342.2731619198, 1201.9845456492, 53.2582, 53.2582, 53.2582, 151063.468704641, -603.309240233673, -17.3286059593495, -1275.274208914, -517.324905827674, -48154.3382710465, 0, ]
  - [6800, -48155.7819190497, 1835.54588761469, -46320.236031435, 1217.55988713131, 53.2582, 53.2582, 53.2582, 151063.468704641, -755.479252057114, -986.43892372418, -1273.49060284788, -6.50822959926993, -48155.7819190497, 0, ]
  - [6900, -48131.003801332, 1811.60681865995, -46319.3969826721, 1201.68055102142, 53.2582, 53.2582, 53.2582, 151063.468704641, 731.019733288809, 1066.14305413113, 160.885072329762, 966.031073405528, -48131.003801332, 0, ]
  - [7000, -48137.2183985034, 1813.06056649158, -46324.1578320118, 1202.64485545954, 53.2582, 53.2582, 53.2582, 151063.468704641, 1161.96579116302, 2196.50430822896, 1137.82978008733, 151.563285172745, -48137.2183985034, 0, ]
  - [7100, -48140.1402406543, 1813.17398732372, -46326.9662533306, 1202.72009011126, 53.2582, 53.2582, 53.2582, 151063.468704641, 1201.14937332596, 1411.17426687481, 1451.12293903672, 741.150914066349, -48140.1402406543, 0, ]
  - [7200, -48163.2414482494, 1794.88912119086, -46368.3523270586, 1190.59131703337, 53.2582, 53.2582, 53.2582, 151063.468704641, -1667.68695930812, -1969.16383439037, -2147.37391039295, -886.523133141041, -48163.2414482494, 0, ]
  - [7300, -48144.934962934, 1805.18219249238, -46339.7527704416, 1197.41894842993, 53.2582, 53.2582, 53.2582, 151063.468704641, 848.397984554003, 13.2547491899831, 943.225080684616, 1588.71412378741, -48144.934962934, 0, ]
  - [7400, -48132.5115830424, 1780.560830827, -46351.9507522154, 1181.08703184175, 53.2582, 53.2582, 53.2582, 151063.468704641, 764.758858593328, 625.692231170102, 97.7743816940435, 1570.80996291583, -48132.5115830424, 0, ]
  - [7500, -48149.1121477842, 1818.73679090069, -46330.3753568835, 1206.41002591783, 53.2582, 53.2582, 53.2582, 151063.468704641, -67.1006381717649, -307.447172121825, -213.338761332589, 319.48401893912, -48149.1121477842, 0, ]
  - [7600, -48140.1543227015, 1814.90326775545, -46325.2510549461, 1203.86716167264, 53.2582, 53.2582, 53.2582, 151063.468704641, 1172.66444728216, 1039.06118661544, 1115.01586333119, 1363.91629189985, -48140.1543227015, 0, ]
  - [7700, -48152.6979279373, 1786.88456629221, -46365.8133616451, 1185.28171130534, 53.2582, 53.2582, 53.2582, 151063.468704641, -1586.75825604334, -1288.36345816583, -1634.1501419427, -1837.7611680215, -48152.6979279373, 0, ]
  - [7800, -48170.5284894336, 1789.46804235339, -46381.0604470802, 1186.99539051254, 53.2582, 53.2582, 53.2582, 151063.468704641, -3177.75993254519, -3247.80611952852, -3278.78322324034, -3006.69045486668, -48170.5284894336, 0, ]
  - [7900, -48149.0459837217, 1804.46532074012, -46344.5806629816, 1196.94343087646, 53.2582, 53.2582, 53.2582, 151063.468704641, -405.738149957677, 511.049590696562, -477.676176795861, -1250.58786377373, -48149.0459837217, 0, ]
  - [8000, -48142.1087994414, 1813.06989452971, -46329.0389049117, 1202.6510429622, 53.2582, 53.2582, 53.2582, 151063.468704641, -25.9181315193719, 36.0660714875462, 298.522306053894, -412.342772099571, -48142.1087994414, 0, ]
  - [8100, -48150.4107199912, 1799.78587242844, -46350.6248475628, 1193.83944497415, 53.2582, 53.2582, 53.2582, 151063.468704641, -341.901634079838, -283.183164954384, -80.088981272002, -662.432756013128, -48150.4107199912, 0, ]
  - [8200, -48148.0217919533, 1788.36033944719, -46359.6614525061, 1186.26062564801, 53.2582, 53.2582, 53.2582, 151063.468704641, 295.405782248118, 124.890205434531, 204.450289775593, 556.87685153422, -48148.0217919533, 0, ]
  - [8300, -48148.1886855784, 1789.55146541586, -46358.6372201625, 1187.05072695234, 53.2582, 53.2582, 53.2582, 151063.468704641, 406.644372305281, 505.697975361852, 465.709410687566, 248.525730866424, -48148.1886855784, 0, ]
  - [8400, -48145.1074868513, 1817.60953676374, -46327.4979500876, 1205.66229227139, 53.2582, 53.2582, 53.2582, 151063.468704641, -103.782990560718, -622.706018636045, 200.682583102298, 110.674463851602, -48145.1074868513, 0, ]
  - [8500, -48136.3970116944, 1820.84393083016, -46315.5530808642, 1207.80774039177, 53.2582, 53.2582, 53.2582, 151063.468704641, 1050.57340879228, 1593.19812904619, 1015.53449901061, 542.987598320039, -48136.3970116944, 0, ]
  - [8600, -48159.6430538122, 1827.94373413663, -46331.6993196756, 1212.51720353884, 53.2582, 53.2582, 53.2582, 151063.468704641, -896.051339057822, -402.736664513333, -1637.78978688175, -647.627565778393, -48159.6430538122, 0, ]
  - [8700, -48157.9203152881, 1810.66474604201, -46347.2555692461, 1201.05565254402, 53.2582, 53.2582, 53.2582, 151063.468704641, -1081.55870817735, -1505.06340170168, -1412.03690557793, -327.575817252439, -48157.9203152881, 0, ]
  - [8800, -48138.4297633993, 1793.72063405533, -46344.709129344, 1189.81623258877, 53.2582, 53.2582, 53.2582, 151063.468704641, 731.074443336918, 598.343969900673, 862.362879416924, 732.516480693157, -48138.4297633993, 0, ]
  - [8900, -48134.5327432053, 1816.7095264368, -46317.8232167685, 1205.06529468093, 53.2582, 53.2582, 53.2582, 151063.468704641, 1147.33604006658, 368.97741491393, 1489.12597273992, 1583.90473254589, -48134.5327432053, 0, ]
  - [9000, -48130.4101924869, 1811.86901163163, -46318.5411808552, 1201.85446966173, 53.2582, 53.2582, 53.2582, 151063.468704641, 1700.54419551039, 1391.01131897493, 1743.23004211228, 1967.39122544397, -48130.4101924869, 0, ]
  - [9100, -48152.6580354943, 1803.18128002023, -46349.4767554741, 1196.09169707644, 53.2582, 53.2582, 53.2582, 151063.468704641, -1241.00932759814, -824.640073121506, -1810.79158510486, -1087.59632456807, -48152.6580354943, 0, ]
  - [9200, -48149.2600073443, 1795.00082815723, -46354.259179187, 1190.66541483844, 53.2582, 53.2582, 53.2582, 151063.468704641, -797.31620998547, 47.97878962585, -2044.63964026668, -395.287779315565, -48149.2600073443, 0, ]
  - [9300, -48136.7963970383, 1789.81391666881, -46346.9824803695, 1187.22481691657, 53.2582, 53.2582, 53.2582, 151063.468704641, 1142.33858915073, 1505.01780331113, 1188.48035343932, 733.517610701741, -48136.7963970383, 0, ]
  - [9400, -48149.2267402936, 1799.59874814857, -46349.627992145, 1193.71532112706, 53.2582, 53.2582, 53.2582, 151063.468704641, -545.858546926271, -364.373241224821, 686.737591158818, -1959.93999071281, -48149.2267402936, 0, ]
  - [9500, -48160.7726303076, 1805.75108815202, -46355.0215421556, 1197.79631003109, 53.2582, 53.2582, 53.2582, 151063.468704641, -981.139764950047, 170.826373220433, -731.649887675343, -2382.59578039524, -48160.7726303076, 0, ]
  - [9600, -48150.0181142016, 1809.43455155166, -46340.5835626499, 1200.23963618892, 53.2582, 53.2582, 53.2582, 151063.468704641, 13.344071883709, -65.9917108452119, -507.221100412286, 613.245026908624, -48150.0181142016, 0, ]
  - [9700, -48128.0386869028, 1807.9181475444, -46320.1205393584, 1199.23377046561, 53.2582, 53.2582, 53.2582, 151063.468704641, 1625.43083430913, 1062.18976035536, 1597.75476042289, 2216.34798214914, -48128.0386869028, 0, ]
  - [9800, -48138.2766783041, 1827.26317459316, -46311.0135037109, 1212.06577271027, 53.2582, 53.2582, 53.2582, 151063.468704641, 203.889544954822, 124.428852846224, -245.917313609385, 733.157095627629, -48138.2766783041, 0, ]
  - [9900, -48145.9712322911, 1798.23383553051, -46347.7373967606, 1192.8099431333, 53.2582, 53.2582, 53.2582, 151063.468704641, -179.304497946686, -131.57911765165, -804.115877400529, 397.78150121212, -48145.9712322911, 0, ]
  - [10000, -48164.0362919664, 1806.41275099161, -46357.6235409748, 1198.23520624051, 53.2582, 53.2582, 53.2582, 151063.468704641, -943.150900783041, -987.010796714515, -845.463789778658, -996.978115855951, -48164.0362919664, 0, ]
  - [10100, -48153.7947252781, 1832.27389002452, -46321.5208352536, 1215.38949572707, 53.2582, 53.2582, 53.2582, 151063.468704641, -926.416816018821, -1396.63662955841, -801.96178352807, -580.652034969984, -48153.7947252781, 0, ]
  - [10200, -48126.0451264953, 1817.09323389198, -46308.9518926033, 1205.31981667844, 53.2582, 53.2582, 53.2582, 151063.468704641, 2445.70812175632, 2491.35362632948, 2515.27753171225, 2330.49320722723, -48126.0451264953, 0, ]
  - [10300, -48149.1238652066, 1806.53344202945, -46342.5904231771, 1198.31526338722, 53.2582, 53.2582, 53.2582, 151063.468704641, -535.137136000199, -518.964555014757, -1207.86875023053, 121.421897244693, -48149.1238652066, 0, ]
  - [10400, -48143.8605747525, 1800.76781081271, -46343.0927639398, 1194.49078733305, 53.2582, 53.2582, 53.2582, 151063.468704641, 306.35432778525, 920.512021797898, -9.54456587061356, 8.09552742847244, -48143.8605747525, 0, ]
  - [10500, -48158.2021264099, 1809.8765479753, -46348.3255784346, 1200.53282260247, 53.2582, 53.2582, 53.2582, 151063.468704641, -995.401577084396, -707.324653573159, -1268.22715821034, -1010.65291946969, -48158.2021264099, 0, ]
  - [10600, -48151.2236962572, 1818.34373197292, -46332.8799642843, 1206.14930087306, 53.2582, 53.2582, 53.2582, 151063.468704641, -836.393436761356, -758.375735817932, -760.883896492533, -989.920677973607, -48151.2236962572, 0, ]
  - [10700, -48161.7352428393, 1844.28366791103, -46317.4515749282, 1223.35585816269, 53.2582, 53.2582, 53.2582, 151063.468704641, -905.944125457876, -926.068713709481, -1270.1481662149, -521.615496449242, -48161.7352428393, 0, ]
  - [10800, -48140.5526965418, 1808.54351373642, -46332.0091828054, 1199.64859027225, 53.2582, 53.2582, 53.2582, 151063.468704641, 1140.96673588403, 1954.35885469479, 618.391156288014, 850.150196669295, -48140.5526965418, 0, ]
  - [10900, -48149.7506855418, 1808.14467614193, -46341.6060093999, 1199.38403210467, 53.2582, 53.2582, 53.2582, 151063.468704641, -873.644567966497, -1034.65443528629, -978.782244865768, -607.497023747432, -48149.7506855418, 0, ]
  - [11000, -48152.7950060439, 1815.93348749354, -46336.8615185503, 1204.55053016617, 53.2582, 53.2582, 53.2582, 151063.468704641, -337.408323597274, 621.340812448082, -520.896479583505, -1112.6693036564, -48152.7950060439, 0, ]
  - [11100, -48149.2001576928, 1804.29452486723, -46344.9056328256, 1196.83013803801, 53.2582, 53.2582, 53.2582, 151063.468704641, 130.222086361518, 935.069533608523, -335.444892229765, -208.958382294201, -48149.2001576928, 0, ]
  - [11200, -48158.8716300396, 1786.80911616367, -46372.062513876, 1185.23166349635, 53.2582, 53.2582, 53.2582, 151063.468704641, -1732.65649692223, -1415.55061887272, -1789.397652434, -1993.02121945997, -48158.8716300396, 0, ]
  - [11300, -48160.2221105604, 1779.48566181109, -46380.7364487493, 1180.37384745638, 53.2582, 53.2582, 53.2582, 151063.468704641, -509.794343921535, -451.445914129533, -534.035207595672, -543.9019100394, -48160.2221105604, 0, ]
  - [11400, -48168.8792781151, 1798.38504370989, -46370.4942344052, 1192.91024300325, 53.2582, 53.2582, 53.2582, 151063.468704641, -1942.04388916426, -1772.68067433226, -2201.7628920623, -1851.68810109823, -48168.8792781151, 0, ]
  - [11500, -48161.4053906889, 1808.23312988826, -46353.1722608006, 1199.44270551301, 53.2582, 53.2582, 53.2582, 151063.468704641, -1422.4186764043, -1701.52757197184, -1441.1457197354, -1124.58273750565, -48161.4053906889, 0, ]
  - [11600, -48156.0378596972, 1787.93595591362, -46368.1019037836, 1185.97912227034, 53.2582, 53.2582, 53.2582, 151063.468704641, -1325.53852799204, -443.685999665649, -2757.71801310065, -775.211571209805, -48156.0378596972, 0, ]
  - [11700, -48147.0915917364, 1825.17809618455, -46321.9134955518, 1210.68269215152, 53.2582, 53.2582, 53.2582, 151063.468704641, 327.507758950608, 1404.1935338262, -98.7257789376529, -322.944478036714, -48147.0915917364, 0, ]
  - [11800, -48143.586199773, 1799.95927737409, -46343.6269223989, 1193.95446847069, 53.2582, 53.2582, 53.2582, 151063.468704641, 267.644646466675, 1168.55877816574, -263.427424245517, -102.197414520195, -48143.586199773, 0, ]
  - [11900, -48137.9373988426, 1801.02290608348, -46336.9144927591, 1194.65999790479, 53.2582, 53.2582, 53.2582, 151063.468704641, 466.279802046017, 571.742197034159, -349.90274363904, 1176.99995274293, -48137.9373988426, 0, ]
  - [12000, -48140.2712305387, 1818.55994388144, -46321.7112866573, 1206.29271921455, 53.2582, 53.2582, 53.2582, 151063.468704641, 1044.28226014306, 572.19546134297, 1991.60382713202, 569.047491954176, -48140.2712305387, 0, ]
  - [12100, -48131.6062157763, 1807.04915184582, -46324.5570639304, 1198.65734559287, 53.2582, 53.2582, 53.2582, 151063.468704641, 569.349004984574, 165.94338311552, 1169.68703633318, 372.41659550502, -48131.6062157763, 0, ]
  - [12200, -48152.6542063149, 1825.46090263928, -46327.1933036756, 1210.87028419017, 53.2582, 53.2582, 53.2582, 151063.468704641, -122.994241336174, 383.077759124262, -68.517237665035, -683.543245467746, -48152.6542063149, 0, ]
  - [12300, -48144.1860303224, 1816.74054959839, -46327.445480724, 1205.08587305894, 53.2582, 53.2582, 53.2582, 151063.468704641, 1490.48946583114, 896.783932421986, 2367.55968718505, 1207.12477788638, -48144.1860303224, 0, ]
  - [12400, -48142.7559078992, 1794.95618932462, -46347.7997185746, 1190.63580487207, 53.2582, 53.2582, 53.2582, 151063.468704641, 523.592649270927, 575.914807937382, 724.132866514389, 270.730273361006, -48142.7559078992, 0, ]
  - [12500, -48133.2129167387, 1806.6663012226, -46326.5466155161, 1198.40339195175, 53.2582, 53.2582, 53.2582, 151063.468704641, 1058.32175035474, 1492.5018747378, 1260.78486609577, 421.678510230637, -48133.2129167387, 0, ]
  - [12600, -48137.9668149015, 1795.43979087837, -46342.5270240231, 1190.9565889272, 53.2582, 53.2582, 53.2582, 151063.468704641, 969.513653802621, 1181.48708181523, 851.84710806165, 875.206771530985, -48137.9668149015, 0, ]
  - [12700, -48164.0330680897, 1797.60369194266, -46366.4293761471, 1192.39195436991, 53.2582, 53.2582, 53.2582, 151063.468704641, -1813.38061249797, -644.832549643352, -2476.70504753919, -2318.60424031135, -48164.0330680897, 0, ]
  - [12800, -48140.9462542821, 1787.73608707252, -46353.2101672096, 1185.84654466209, 53.2582, 53.2582, 53.2582, 151063.468704641, 546.409168505723, 307.383163642355, 1146.40658654853, 185.437755326284, -48140.9462542821, 0, ]
  - [12900, -48132.676022311, 1809.94197207357, -46322.7340502374, 1200.57621991454, 53.2582, 53.2582, 53.2582, 151063.468704641, 1284.63783959683, 1187.36587034872, 1432.7933376425, 1233.75431079927, -48132.676022311, 0, ]
  - [13000, -48125.4552198118, 1810.10175869616, -46315.3534611156, 1200.68221006356, 53.2582, 53.2582, 53.2582, 151063.468704641, 2324.97439248368, 2610.51622287109, 1358.89473985461, 3005.51221472534, -48125.4552198118, 0, ]
  - [13100, -48145.9950681912, 1826.18072229591, -46319.8143458953, 1211.34775715655, 53.2582, 53.2582, 53.2582, 151063.468704641, -205.955470418699, 15.5648914884091, -767.335832272898, 133.904529528398, -48145.9950681912, 0, ]
  - [13200, -48160.0041102111, 1808.69058455909, -46351.313525652, 1199.74614573815, 53.2582, 53.2582, 53.2582, 151063.468704641, -1464.60443387798, -1137.84523889495, -2548.97973858262, -706.988324156388, -48160.0041102111, 0, ]
  - [13300, -48143.6498481207, 1811.64336807237, -46332.0064800484, 1201.70479508895, 53.2582, 53.2582, 53.2582, 151063.468704641, 634.50167331823, 583.219215592746, 86.106093013078, 1234.17971134887, -48143.6498481207, 0, ]
  - [13400, -48166.5212809131, 1817.60153561496, -46348.9197452982, 1205.65698492502, 53.2582, 53.2582, 53.2582, 151063.468704641, -1317.3418569002, -2327.20679968074, -1042.08496841125, -582.733802608609, -48166.5212809131, 0, ]
  - [13500, -48137.5792822855, 1795.91990729885, -46341.6593749867, 1191.27506121311, 53.2582, 53.2582, 53.2582, 151063.468704641, 352.488830157993, 690.886893337697, 170.620420739836, 195.959176396439, -48137.5792822855, 0, ]
  - [13600, -48155.7570339811, 1836.80206926619, -46318.9549647149, 1218.39314136927, 53.2582, 53.2582, 53.2582, 151063.468704641, -504.420173162743, -405.772474383812, -1019.58713114793, -87.9009139564902, -48155.7570339811, 0, ]
  - [13700, -48163.3790360382, 1787.11506378059, -46376.2639722576, 1185.43460560117, 53.2582, 53.2582, 53.2582, 151063.468704641, -1424.64280786777, -342.234716913304, -2265.91562252049, -1665.77808416952, -48163.3790360382, 0, ]
  - [13800, -48147.978534837, 1767.86837256875, -46380.1101622682, 1172.66783178328, 53.2582, 53.2582, 53.2582, 151063.468704641, -433.462494060551, -1463.04094494026, 238.861204535405, -76.2077417767904, -48147.978534837, 0, ]
  - [13900, -48130.0709075793, 1792.96428632231, -46337.106621257, 1189.31452970754, 53.2582, 53.2582, 53.2582, 151063.468704641, 968.243357559827, 700.84306754529, 738.537812889353, 1465.34919224484, -48130.0709075793, 0, ]
  - [14000, -48165.0941941976, 1800.8811623768, -46364.2130318209, 1194.56597603769, 53.2582, 53.2582, 53.2582, 151063.468704641, -1960.0781746071, -964.322820049051, -2146.5480559618, -2769.36364781046, -48165.0941941976, 0, ]
  - [14100, -48163.3626039982, 1795.47028085777, -46367.8923231404, 1190.97681363317, 53.2582, 53.2582, 53.2582, 151063.468704641, -1495.25988600283, -598.350136711974, -2510.96792498023, -1376.46159631628, -48163.3626039982, 0, ]
  - [14200, -48160.5022755868, 1786.05038434502, -46374.4518912417, 1184.72837919618, 53.2582, 53.2582, 53.2582, 151063.468704641, -1900.43768013502, -1541.83232672015, -2656.53183080905, -1502.94888287585, -48160.5022755868, 0, ]
  - [14300, -48154.6853234577, 1805.97164353802, -46348.7136799197, 1197.94260950129, 53.2582, 53.2582, 53.2582, 151063.468704641, -254.776819025653, -125.902455629455, 159.549603293783, -797.977604741296, -48154.6853234577, 0, ]
  - [14400, -48166.7392999095, 1780.2699075482, -46386.4693923613, 1180.89405572663, 53.2582, 53.2582, 53.2582, 151063.468704641, -1565.90832467505, -1607.14669632896, -2317.42444355863, -773.153834137546, -48166.7392999095, 0, ]
  - [14500, -48161.6604419505, 1785.43684292325, -46376.2235990272, 1184.32140303215, 53.2582, 53.2582, 53.2582, 151063.468704641, -2185.30764606464, -1880.59091794945, -2469.67541392369, -2205.65660632077, -48161.6604419505, 0, ]
  - [14600, -48146.7600790856, 1829.73709356827, -46317.0229855173, 1213.70678017754, 53.2582, 53.2582, 53.2582, 151063.468704641, -217.655376572217, -42.6951188799072, -129.49493663013, -480.776074206618, -48146.7600790856, 0, ]
  - [14700, -48128.271823208, 1807.23384386025, -46321.0379793478, 1198.77985606224, 53.2582, 53.2582, 53.2582, 151063.468704641, 2243.75401753062, 1908.20711337602, 2555.85507892705, 2267.19986028879, -48128.271823208, 0, ]
  - [14800, -48153.1510468994, 1805.31881994767, -46347.8322269518, 1197.50957656959, 53.2582, 53.2582, 53.2582, 151063.468704641, -849.514900973776, -995.454871487967, -1340.05670481063, -213.03312662272, -48153.1510468994, 0, ]
  - [14900, -48161.228249964, 1815.8092162597, -46345.4190337043, 1204.46809819295, 53.2582, 53.2582, 53.2582, 151063.468704641, -1308.70174844889, -778.538074948299, -1105.54707117753, -2042.02009922083, -48161.228249964, 0, ]
  - [15000, -48160.6149467236, 1818.79275505485, -46341.8221916687, 1206.44714823097, 53.2582, 53.2582, 53.2582, 151063.468704641, -679.692119855149, -989.690539453598, -443.59851889539, -605.787301216466, -48160.6149467236, 0, ]
  - [15100, -48143.3562730747, 1806.82349346266, -46336.532779612, 1198.50766118705, 53.2582, 53.2582, 53.2582, 151063.468704641, -220.577741178625, 619.42134590538, -570.196029242202, -710.958540199041, -48143.3562730747, 0, ]
  - [15200, -48152.7078103133, 1800.58484303074, -46352.1229672826, 1194.36942058681, 53.2582, 53.2582, 53.2582, 151063.468704641, -1133.71371030498, -1414.79306655269, -919.607865335961, -1066.74019902627, -48152.7078103133, 0, ]
  - [15300, -48164.6438198055, 1798.63834047714, -46366.0054793283, 1193.07826058615, 53.2582, 53.2582, 53.2582, 151063.468704641, -1651.90122244136, -1487.82964391547, -1792.63612153094, -1675.23790187766, -48164.6438198055, 0, ]
  - [15400, -48151.6048336791, 1791.65310233113, -46359.951731348, 1188.44479115015, 53.2582, 53.2582, 53.2582, 151063.468704641, -835.371972060416, -1401.54788163172, -770.964877896293, -333.603156653233, -48151.6048336791, 0, ]
  - [15500, -48166.5509410786, 1797.72691314122, -46368.8240279374, 1192.47368983053, 53.2582, 53.2582, 53.2582, 151063.468704641, -2018.68379661159, -2278.52993176684, -2172.23070724871, -1605.29075081923, -48166.5509410786, 0, ]
  - [15600, -48150.2762182705, 1779.11359368688, -46371.1626245836, 1180.12704609534, 53.2582, 53.2582, 53.2582, 151063.468704641, -857.045227662748, -1286.8532774285, -921.696413938806, -362.585991620928, -48150.2762182705, 0, ]
  - [15700, -48167.7973180526, 1810.82133749095, -46356.9759805617, 1201.15952326073, 53.2582, 53.2582, 53.2582, 151063.468704641, -1762.33852442543, -1971.10391932108, -2207.71118305835, -1108.20047089687, -48167.7973180526, 0, ]
  - [15800, -48166.4954830329, 1806.42460595851, -46360.0708770743, 1198.24306991325, 53.2582, 53.2582, 53.2582, 151063.468704641, -1435.28293377942, -1690.12466401673, -1479.15370771765, -1136.57042960388, -48166.4954830329, 0, ]
  - [15900, -48160.6223401428, 1816.94032023185, -46343.6820199109, 1205.2183855238, 53.2582, 53.2582, 53.2582, 151063.468704641, -730.629248931482, -219.511446967613, -1220.27484589843, -752.101453928394, -48160.6223401428, 0, ]
  - [16000, -48152.7842316788, 1812.92059843592, -46339.8636332429, 1202.55201142267, 53.2582, 53.2582, 53.2582, 151063.468704641, -720.979720320122, -1035.37516626933, -414.610119688827, -712.953875002216, -48152.7842316788, 0, ]
  - [16100, -48149.9577937395, 1810.72448623723, -46339.2333075023, 1201.09527959221, 53.2582, 53.2582, 53.2582, 151063.468704641, -152.743564703795, -572.633030935202, 148.139627100934, -33.7372902771241, -48149.9577937395, 0, ]
  - [16200, -48128.5824843938, 1785.14248729774, -46343.4399970961, 1184.12615016236, 53.2582, 53.2582, 53.2582, 151063.468704641, 1141.50703269066, 268.366595158095, 1715.10329856743, 1441.05120434646, -48128.5824843938, 0, ]
  - [16300, -48142.9013655985, 1807.22034987211, -46335.6810157264, 1198.77090518894, 53.2582, 53.2582, 53.2582, 151063.468704641, 217.61867741047, 106.597242808659, 108.359939247857, 437.898850174897, -48142.9013655985, 0, ]
  - [16400, -48142.7742766814, 1790.82844969397, -46351.9458269874, 1187.89778005193, 53.2582, 53.2582, 53.2582, 151063.468704641, 345.538673173165, -335.789502635706, 786.447437282819, 585.958084872389, -48142.7742766814, 0, ]
  - [16500, -48163.3517059232, 1813.74933108101, -46349.6023748422, 1203.10172888419, 53.2582, 53.2582, 53.2582, 151063.468704641, -1444.51188683577, -1439.77072208211, -1544.85032201396, -1348.91461641124, -48163.3517059232, 0, ]
  - [16600, -48154.1902357344, 1837.69400464942, -46316.4962310849, 1218.98478266348, 53.2582, 53.2582, 53.2582, 151063.468704641, -127.837321263149, 248.051547471469, -111.797036145067, -519.766475115851, -48154.1902357344, 0, ]
  - [16700, -48145.8159545817, 1826.01895198893, -46319.7970025927, 1211.24045118396, 53.2582, 53.2582, 53.2582, 151063.468704641, 976.90551696136, 692.907461308774, 516.74305646403, 1721.06603311127, -48145.8159545817, 0, ]
  - [16800, -48136.3871320143, 1813.46628663398, -46322.9208453803, 1202.91397897975, 53.2582, 53.2582, 53.2582, 151063.468704641, 876.864759522225, 397.201531736942, 965.854424899134, 1267.5383219306, -48136.3871320143, 0, ]
  - [16900, -48119.8153724634, 1796.02786332163, -46323.7875091417, 1191.34667093085, 53.2582, 53.2582, 53.2582, 151063.468704641, 2564.86289713435, 2789.69970358158, 1417.11949357585, 3487.76949424563, -48119.8153724634, 0, ]
  - [17000, -48144.1244729802, 1792.27945926813, -46351.8450137121, 1188.86026814076, 53.2582, 53.2582, 53.2582, 151063.468704641, 270.414472889485, 922.472274807014, -1040.50034260387, 929.271486465314, -48144.1244729802, 0, ]
  - [17100, -48137.3305959293, 1824.45640803984, -46312.8741878894, 1210.20397977394, 53.2582, 53.2582, 53.2582, 151063.468704641, 1673.70672765354, 2333.85853002627, 1091.13251554103, 1596.12913739332, -48137.3305959293, 0, ]
  - [17200, -48139.6349518878, 1814.57381581874, -46325.0611360691, 1203.64862861084, 53.2582, 53.2582, 53.2582, 151063.468704641, 263.861016025721, 544.833338730593, -88.1515134472574, 334.901222793831, -48139.6349518878, 0, ]
  - [17300, -48126.6880507173, 1816.6517847346, -46310.0362659827, 1205.02699327922, 53.2582, 53.2582, 53.2582, 151063.468704641, 1739.46464783154, 340.016976216594, 2117.29375904959, 2761.08320822845, -48126.6880507173, 0, ]
  - [17400, -48155.663417808, 1810.81077506114, -46344.8526427469, 1201.15251695762, 53.2582, 53.2582, 53.2582, 151063.468704641, -308.963351669831, 438.870801788718, -1226.03406374602, -139.726793052204, -48155.663417808, 0, ]
  - [17500, -48147.7827617616, 1821.94679120269, -46325.8359705589, 1208.53929309212, 53.2582, 53.2582, 53.2582, 151063.468704641, 81.0761021974676, 209.210887920998, -229.988789195959, 264.006207867364, -48147.7827617616, 0, ]
  - [17600, -48150.2572977152, 1812.24312748324, -46338.0141702319, 1202.10262932755, 53.2582, 53.2582, 53.2582, 151063.468704641, 358.689760754918, -241.344861127014, 1205.19777121206, 112.21637217971, -48150.2572977152, 0, ]
  - [17700, -48166.2648016799, 1827.48057219829, -46338.7842294816, 1212.20997755164, 53.2582, 53.2582, 53.2582, 151063.468704641, -1946.96182507415, -511.559055601493, -2392.07553152106, -2937.25088809988, -48166.2648016799, 0, ]
  - [17800, -48150.0026158973, 1799.36118900079, -46350.6414268965, 1193.55774266982, 53.2582, 53.2582, 53.2582, 151063.468704641, -85.8818767829075, -87.7086100740201, -154.332451432639, -15.6045688420685, -48150.0026158973, 0, ]
  - [17900, -48160.5751873489, 1806.93761463543, -46353.6375727134, 1198.58336039086, 53.2582, 53.2582, 53.2582, 151063.468704641, -1183.11805985066, -1717.18989678379, -620.618537464764, -1211.54574530342, -48160.5751873489, 0, ]
  - [18000, -48143.154582859, 1825.61148531705, -46317.5430975419, 1210.9701691505, 53.2582, 53.2582, 53.2582, 151063.468704641, -427.54147542652, -129.234856291992, -389.172539188114, -764.217030799452, -48143.154582859, 0, ]
  - [18100, -48135.0787994686, 1826.27229144662, -46308.806508022, 1211.40849708442, 53.2582, 53.2582, 53.2582, 151063.468704641, 1731.18062667781, 1756.49430410181, 1858.34158955194, 1578.70598637967, -48135.0787994686, 0, ]
  - [18200, -48161.0059888623, 1809.20890147155, -46351.7970873907, 1200.08995729072, 53.2582, 53.2582, 53.2582, 151063.468704641, -1576.83710400641, -1246.8029167599, -1557.15276096999, -1926.55563428934, -48161.0059888623, 0, ]
  - [18300, -48166.2124814398, 1792.96921825507, -46373.2432631847, 1189.31780117219, 53.2582, 53.2582, 53.2582, 151063.468704641, -1719.37577594269, -2485.37961533007, -1503.71290432523, -1169.03480817276, -48166.2124814398, 0, ]
  - [18400, -48159.4839120248, 1831.79571736692, -46327.6881946579, 1215.07231278386, 53.2582, 53.2582, 53.2582, 151063.468704641, -665.525158359265, -1698.79856111467, 1126.42024260396, -1424.19715656709, -48159.4839120248, 0, ]
  - [18500, -48158.2447054153, 1828.54737627246, -46329.6973291428, 1212.91761327838, 53.2582, 53.2582, 53.2582, 151063.468704641, -1427.76398184699, -1282.63607085907, -1209.55504820145, -1791.10082648046, -48158.2447054153, 0, ]
  - [18600, -48133.8365996654, 1805.05799490391, -46328.7786047614, 1197.33656530739, 53.2582, 53.2582, 53.2582, 151063.468704641, 1066.16200993287, 812.841911420844, 1371.14696175066, 1014.49715662711, -48133.8365996654, 0, ]
  - [18700, -48162.3712896321, 1796.34291361199, -46366.0283760201, 1191.55565104873, 53.2582, 53.2582, 53.2582, 151063.468704641, -1356.0263008332, -1214.50821570853, -2170.32358117703, -683.24710561404, -48162.3712896321, 0, ]
  - [18800, -48142.7236906275, 1810.67831135018, -46332.0453792773, 1201.06465072554, 53.2582, 53.2582, 53.2582, 151063.468704641, 356.773674418361, 564.635988925175, -51.5893864566888, 557.274420786607, -48142.7236906275, 0, ]
  - [18900, -48163.8991580259, 1816.27867723044, -46347.6204807954, 1204.7795024735, 53.2582, 53.2582, 53.2582, 151063.468704641, -1920.20724680012, -1487.61168317687, -2130.44252644257, -2142.56753078092, -48163.8991580259, 0, ]
  - [19000, -48164.7070922396, 1812.99654332998, -46351.7105489096, 1202.60238742104, 53.2582, 53.2582, 53.2582, 151063.468704641, -1866.09096963808, -1682.88918592536, -1517.75718027287, -2397.626542716, -48164.7070922396, 0, ]
  - [19100, -48130.8254138443, 1795.76464604259, -46335.0607678017, 1191.17207284386, 53.2582, 53.2582, 53.2582, 151063.468704641, 1608.12933293054, 1491.34633736638, 1445.07807086992, 1887.96359055531, -48130.8254138443, 0, ]
  - [19200, -48160.5087613256, 1791.34233645096, -46369.1664248746, 1188.23865298028, 53.2582, 53.2582, 53.2582, 151063.468704641, -1095.92589658627, -435.468156484804, -1887.63343067295, -964.676102601044, -48160.5087613256, 0, ]
  - [19300, -48162.3675460936, 1797.57156340173, -46364.7959826918, 1192.37064276831, 53.2582, 53.2582, 53.2582, 151063.468704641, -1853.61449824669, -2705.80572173503, -1824.15042295418, -1030.88735005085, -48162.3675460936, 0, ]
  - [19400, -48145.6079439484, 1794.36903586881, -46351.2389080796, 1190.24633245397, 53.2582, 53.2582, 53.2582, 151063.468704641, 218.829569884935, -174.614512701748, 151.020349760271, 680.082872596287, -48145.6079439484, 0, ]
  - [19500, -48136.3743552742, 1815.44464813003, -46320.9297071441, 1204.22627175112, 53.2582, 53.2582, 53.2582, 151063.468704641, 285.44060759183, 613.845435636142, -665.488699236597, 907.965086375943, -48136.3743552742, 0, ]
  - [19600, -48155.867908836, 1807.04579138993, -46348.8221174461, 1198.65511652504, 53.2582, 53.2582, 53.2582, 151063.468704641, -1481.20356181847, -682.550176877098, -2161.69741036104, -1599.36309821727, -48155.867908836, 0, ]
  - [19700, -48156.1812157812, 1803.91847708799, -46352.2627386932, 1196.58069688008, 53.2582, 53.2582, 53.2582, 151063.468704641, -1096.85472240667, -514.296321091575, -1756.07194331967, -1020.19590280877, -48156.1812157812, 0, ]
  - [19800, -48162.1205894195, 1796.89824734334, -46365.2223420762, 1191.92401671032, 53.2582, 53.2582, 53.2582, 151063.468704641, -1353.9577529405, -579.741487449496, -1735.31279876033, -1746.81897261167, -48162.1205894195, 0, ]
  - [19900, -48148.014840408, 1814.46261862631, -46333.5522217817, 1203.57486895058, 53.2582, 53.2582, 53.2582, 151063.468704641, -233.234990719151, 349.811100275216, -1195.059296819, 145.543224386326, -48148.014840408, 0, ]
  - [20000, -48136.1170519265, 1802.29398765443, -46333.8230642721, 1195.50313560268, 53.2582, 53.2582, 53.2582, 151063.468704641, 855.671723740012, 441.255077236974, 376.844438983802, 1748.91565499927, -50005.9184743327, 0, ]
...
Loop time of 19.6253 on 64 procs for 20000 steps with 11664 atoms

Performance: 88.049 ns/day, 0.273 hours/ns, 1019.090 timesteps/s, 11.887 Matom-step/s
74.5% CPU use with 64 MPI tasks x 1 OpenMP threads

MPI task timing breakdown:
Section |  min time  |  avg time  |  max time  |%varavg| %total
---------------------------------------------------------------
Pair    | 11.63      | 12.116     | 12.537     |   5.9 | 61.74
Neigh   | 0.048233   | 0.049519   | 0.05163    |   0.4 |  0.25
Comm    | 4.4701     | 4.8376     | 5.3018     |   8.7 | 24.65
Output  | 0.026453   | 0.027923   | 0.10724    |   6.0 |  0.14
Modify  | 1.9578     | 2.0625     | 2.1797     |   3.8 | 10.51
Other   |            | 0.5315     |            |       |  2.71

Nlocal:         182.25 ave         194 max         172 min
Histogram: 2 5 6 9 12 15 5 6 1 3
Nghost:        1273.28 ave        1283 max        1262 min
Histogram: 3 1 5 7 11 10 12 7 5 3
Neighs:         7127.8 ave        7708 max        6693 min
Histogram: 4 4 8 15 16 4 6 3 2 2

Total # of neighbors = 456179
Ave neighs/atom = 39.109997
Neighbor list builds = 136
Dangerous builds = 0
fix fpf all print 1 "${dE} ${lambda}" title "# dE [eV] lambda" screen no file data/forward_${T}K.dat
fix fpf all print 1 "${dE} ${lambda}" title "# dE [eV] lambda" screen no file data/forward_1200K.dat
run ${t}
run 100000
Per MPI rank memory allocation (min/avg/max) = 3.731 | 3.734 | 3.736 Mbytes
---
keywords: ['Step', 'PotEng', 'KinEng', 'TotEng', 'Temp', 'Lx', 'Ly', 'Lz', 'Volume', 'Press', 'Pxx', 'Pyy', 'Pzz', 'v_dE', 'v_lambda', ]
data:
  - [20000, -48136.1170519265, 1802.29398765443, -46333.8230642721, 1195.50313560268, 53.2582, 53.2582, 53.2582, 151063.468704641, 855.671723740021, 441.255077236981, 376.844438983846, 1748.91565499924, -50005.9184743327, 0, ]
  - [20100, -48145.7534745311, 1788.77736961533, -46356.9761049157, 1186.53725136893, 53.2582, 53.2582, 53.2582, 151063.468704641, -129.6450476647, 46.7937257111526, 4.78538671605284, -440.514255421302, -50026.8010254416, 1.2558053968507e-13, ]
  - [20200, -48153.7278913797, 1807.15351092599, -46346.5743804537, 1198.72656937569, 53.2582, 53.2582, 53.2582, 151063.468704641, -26.2143661217084, 427.656440985707, 517.648153333304, -1023.94769268413, -50019.3749748631, 4.00518903939584e-12, ]
  - [20300, -48155.0158216094, 1811.44616609157, -46343.5696555179, 1201.5739864706, 53.2582, 53.2582, 53.2582, 151063.468704641, -1038.51604637193, -1147.73110031659, -793.128895434247, -1174.68814336494, -50006.7776108821, 3.03129989146628e-11, ]
  - [20400, -48149.9734240499, 1819.34329831755, -46330.6301257323, 1206.8123362643, 53.2582, 53.2582, 53.2582, 151063.468704641, 117.934091726273, 237.445457493283, 42.9420353049076, 73.4147823806405, -50036.6070454988, 1.2731250673451e-10, ]
  - [20500, -48151.6636925791, 1795.41797890135, -46356.2457136778, 1190.94212054019, 53.2582, 53.2582, 53.2582, 151063.468704641, 118.847974310725, 241.401456381074, -307.699709058742, 422.84217560985, -50042.6374600976, 3.87229564589844e-10, ]
  - [20600, -48150.1317645247, 1814.15347703113, -46335.9782874936, 1203.36980820638, 53.2582, 53.2582, 53.2582, 151063.468704641, -481.475121763665, -45.0975059764185, -1192.95163552297, -206.376223791611, -50036.7763082058, 9.60331117066399e-10, ]
  - [20700, -48141.9573300555, 1827.60236099445, -46314.3549690611, 1212.29076286674, 53.2582, 53.2582, 53.2582, 151063.468704641, 877.424462400802, 687.950439307189, 745.395889665765, 1198.92705822946, -50058.8172976699, 2.06871232013244e-09, ]
  - [20800, -48143.6228270865, 1811.06615993644, -46332.55666715, 1201.32191963072, 53.2582, 53.2582, 53.2582, 151063.468704641, 573.387801400015, 484.219560812011, 919.344205910322, 316.599637477715, -50091.36230787, 4.0197947066522e-09, ]
  - [20900, -48153.2723882914, 1791.24106653564, -46362.0313217557, 1188.1714783117, 53.2582, 53.2582, 53.2582, 151063.468704641, -524.208093690249, 88.1980860428923, -520.984852980353, -1139.83751413328, -50105.7259882538, 7.21953805066232e-09, ]
  - [21000, -48154.5192095745, 1804.8071433435, -46349.712066231, 1197.17016968654, 53.2582, 53.2582, 53.2582, 151063.468704641, -1004.04328842827, -1251.81620290167, -541.982830913191, -1218.33083146994, -50135.3229476199, 1.218536857e-08, ]
  - [21100, -48168.2146381625, 1832.04556983547, -46336.169068327, 1215.23804568406, 53.2582, 53.2582, 53.2582, 151063.468704641, -2486.07649922196, -2333.2633101051, -2313.25838894186, -2811.7077986189, -50211.4535225882, 1.95588260943488e-08, ]
  - [21200, -48152.1425290813, 1802.25500380533, -46349.887525276, 1195.47727671719, 53.2582, 53.2582, 53.2582, 151063.468704641, -1276.48438959103, -1078.28696720841, -1186.73170076479, -1564.4345007999, -50206.2918733301, 3.01179328132704e-08, ]
  - [21300, -48146.3288970721, 1779.75963653815, -46366.569260534, 1180.55558120655, 53.2582, 53.2582, 53.2582, 151063.468704641, -17.7510711542885, -927.204799022703, 810.918978599565, 63.0326069602724, -50195.2309645628, 4.47892862063179e-08, ]
  - [21400, -48129.1661980744, 1785.60573652507, -46343.5604615493, 1184.43343405036, 53.2582, 53.2582, 53.2582, 151063.468704641, 1609.88335513683, 1453.05584006764, 1309.89899118292, 2066.69523415995, -50230.7702404184, 6.46598787448807e-08, ]
  - [21500, -48145.3918105174, 1820.0780303363, -46325.3137801811, 1207.29970094413, 53.2582, 53.2582, 53.2582, 151063.468704641, 280.351514085191, 161.423027767045, 1016.19476171607, -336.563247227548, -50225.5088676015, 9.09886469429883e-08, ]
  - [21600, -48135.9481346386, 1802.90171426095, -46333.0464203777, 1195.90625466575, 53.2582, 53.2582, 53.2582, 151063.468704641, 1217.03205211038, 1130.14658619284, 1850.16619486901, 670.783375269299, -50235.2235172322, 1.25217752321905e-07, ]
  - [21700, -48139.4364206956, 1811.59520629189, -46327.8412144037, 1201.67284827008, 53.2582, 53.2582, 53.2582, 151063.468704641, 395.325564917014, 740.92511300873, -92.1056511567264, 537.157232899043, -50259.4360701692, 1.68983596840977e-07, ]
  - [21800, -48159.6584015663, 1831.20987574486, -46328.4485258215, 1214.68371053532, 53.2582, 53.2582, 53.2582, 151063.468704641, -1313.8274306586, -1195.4709743333, -2304.85029962082, -441.16101802168, -50276.1296800226, 2.24127575334849e-07, ]
  - [21900, -48133.1775201123, 1795.97739050423, -46337.200129608, 1191.31319114793, 53.2582, 53.2582, 53.2582, 151063.468704641, 768.918963290722, 842.553228193104, 988.590965744906, 475.612695934158, -50287.6575927697, 2.92706567484841e-07, ]
  - [22000, -48152.7688646767, 1822.20105386021, -46330.5678108165, 1208.70795137229, 53.2582, 53.2582, 53.2582, 151063.468704641, -349.668172760426, 200.213427556344, -357.647738822572, -891.57020701505, -50275.7888581352, 3.7700317184e-07, ]
  - [22100, -48135.5135212201, 1797.21487742986, -46338.2986437903, 1192.1340447434, 53.2582, 53.2582, 53.2582, 151063.468704641, 794.285486536234, 313.717012898661, 623.248592814646, 1445.89085389539, -50249.6084821829, 4.79535684391045e-07, ]
  - [22200, -48156.0131701092, 1829.59528810364, -46326.4178820055, 1213.61271734497, 53.2582, 53.2582, 53.2582, 151063.468704641, -961.878799362041, -932.463251726856, -789.729786459345, -1163.44335989993, -50216.0745950877, 6.03067824188202e-07, ]
  - [22300, -48161.6241543726, 1788.30159088043, -46373.3225634922, 1186.22165636983, 53.2582, 53.2582, 53.2582, 151063.468704641, -964.618835688683, -1736.41091647255, -936.206858269276, -221.238732324226, -50179.2097821917, 7.50618208481703e-07, ]
  - [22400, -48160.1715725148, 1802.88882061975, -46357.282751895, 1195.89770201642, 53.2582, 53.2582, 53.2582, 151063.468704641, -729.745210738626, -1149.57813403846, -505.035532003747, -534.621966173666, -50164.320781682, 9.25469579851522e-07, ]
  - [22500, -48154.4413901145, 1796.36415022064, -46358.0772398939, 1191.56973778065, 53.2582, 53.2582, 53.2582, 151063.468704641, -1239.03139296144, -436.128128653112, -1862.03736229948, -1418.92868793173, -50171.7101325332, 1.13117778778076e-06, ]
  - [22600, -48141.9362596554, 1809.86758290092, -46332.0686767545, 1200.52687586203, 53.2582, 53.2582, 53.2582, 151063.468704641, 455.934236463257, 593.632928914431, 832.980501559112, -58.8107210837739, -50146.1985029062, 1.37158052711496e-06, ]
  - [22700, -48129.7078644369, 1816.35974039649, -46313.3481240404, 1204.83327353963, 53.2582, 53.2582, 53.2582, 151063.468704641, 1089.16215431134, 482.515788105633, 2227.44033361814, 557.530341210241, -50146.6985723459, 1.65080583583745e-06, ]
  - [22800, -48144.3540373858, 1810.62164157675, -46333.7323958091, 1201.02706035888, 53.2582, 53.2582, 53.2582, 151063.468704641, 523.666514386561, 109.044376105175, 821.179082635838, 640.776084418671, -50119.4347410027, 1.97328035457892e-06, ]
  - [22900, -48148.8429706173, 1798.96360364898, -46349.8793669683, 1193.29401514367, 53.2582, 53.2582, 53.2582, 151063.468704641, -255.213742619874, 154.984281804601, -633.311298491728, -287.314211172497, -50155.8989885507, 2.343737350267e-06, ]
  - [23000, -48151.2593470216, 1804.56209455603, -46346.6972524656, 1197.00762317869, 53.2582, 53.2582, 53.2582, 151063.468704641, -836.473058472318, -1320.94611104049, -243.725245262619, -944.747819113843, -50200.5001145694, 2.76722450631e-06, ]
  - [23100, -48155.7613802381, 1799.74512211521, -46356.0162581229, 1193.8124143523, 53.2582, 53.2582, 53.2582, 151063.468704641, -672.103506400445, -847.85046272424, -1275.30878829741, 106.848731820313, -50172.2281898868, 3.2491114816967e-06, ]
  - [23200, -48154.2151289531, 1814.95404712306, -46339.26108183, 1203.90084479738, 53.2582, 53.2582, 53.2582, 151063.468704641, -147.600073494562, 416.34764058006, 87.1093695965649, -946.257230660312, -50144.7742434917, 3.79509724138202e-06, ]
  - [23300, -48154.6364923204, 1825.26167627865, -46329.3748160418, 1210.73813275402, 53.2582, 53.2582, 53.2582, 151063.468704641, -166.838463364815, -412.460131426499, 496.643920841825, -584.699179509773, -50150.3384400039, 4.41121716031674e-06, ]
  - [23400, -48140.3907207614, 1793.29854864396, -46347.0921721174, 1189.53625360851, 53.2582, 53.2582, 53.2582, 151063.468704641, 382.210725900976, 872.29422586577, -56.1572100357894, 330.49516187295, -50176.3011251391, 5.10384990346721e-06, ]
  - [23500, -48150.7820319316, 1842.84667284167, -46307.9353590899, 1222.40266621786, 53.2582, 53.2582, 53.2582, 151063.468704641, -597.739522185584, -1420.91761825992, -1029.22280549767, 656.921857200835, -50187.6522369004, 5.87972408415916e-06, ]
  - [23600, -48124.5639756342, 1819.88144527432, -46304.6825303599, 1207.16930154225, 53.2582, 53.2582, 53.2582, 151063.468704641, 1600.70534760615, 1300.43966326238, 1666.29304839396, 1835.38333116211, -50223.3689029127, 6.74592470306796e-06, ]
  - [23700, -48142.5538555162, 1808.53843735998, -46334.0154181562, 1199.64522299477, 53.2582, 53.2582, 53.2582, 151063.468704641, 387.648147123203, 118.810695537362, 512.397839956157, 531.735905876088, -50172.7574118851, 7.70989937016563e-06, ]
  - [23800, -48148.3205786018, 1825.81544735102, -46322.5051312507, 1211.1054618679, 53.2582, 53.2582, 53.2582, 151063.468704641, -536.692798053462, -682.782478965132, -702.420625740527, -224.875289454721, -50120.9480847407, 8.77946431192315e-06, ]
  - [23900, -48144.0880200823, 1816.73224277647, -46327.3557773058, 1205.08036295253, 53.2582, 53.2582, 53.2582, 151063.468704641, 511.37912587539, 669.216905722335, 463.067690691164, 401.852781212673, -50110.5426495902, 9.96281016605489e-06, ]
  - [24000, -48153.2040431529, 1839.06788892575, -46314.1361542272, 1219.89611176492, 53.2582, 53.2582, 53.2582, 151063.468704641, -520.64467752925, -942.281718823401, -222.930456323909, -396.721857440439, -50093.5596155149, 1.126850756608e-05, ]
  - [24100, -48133.6646273287, 1809.4391834607, -46324.225443868, 1200.24270864093, 53.2582, 53.2582, 53.2582, 151063.468704641, 945.71501129298, -62.1095666777424, 1189.65462491045, 1709.59997564624, -50093.2740315045, 1.2705512517964e-05, ]
  - [24200, -48157.6918724961, 1813.88045498482, -46343.8114175113, 1203.18870639131, 53.2582, 53.2582, 53.2582, 151063.468704641, -1023.00799750898, -679.278529375806, -1441.50320227658, -948.242260874556, -50096.1606616274, 1.42831715710919e-05, ]
  - [24300, -48151.1806940101, 1808.05793314415, -46343.1227608659, 1199.32649347526, 53.2582, 53.2582, 53.2582, 151063.468704641, -559.33171578266, -992.758213669071, 199.730057487721, -884.966991166626, -50078.2490234677, 1.60112267858132e-05, ]
  - [24400, -48142.9030144353, 1823.58432569232, -46319.318688743, 1209.62550745582, 53.2582, 53.2582, 53.2582, 151063.468704641, 219.33041440102, -153.321383215991, 1169.92580812293, -358.613181703888, -50024.5392180237, 1.78998204997854e-05, ]
  - [24500, -48138.0302858706, 1788.54033999007, -46349.4899458805, 1186.38002415619, 53.2582, 53.2582, 53.2582, 151063.468704641, 637.456197731067, 355.054688105687, 472.988156650392, 1084.32574843711, -50030.7338350644, 1.99594998953344e-05, ]
  - [24600, -48154.6047192941, 1814.47550778136, -46340.1292115127, 1203.58341862416, 53.2582, 53.2582, 53.2582, 151063.468704641, -443.452951986055, -52.6854978217347, -785.805933505513, -491.867424630924, -50018.7486932921, 2.2201221370035e-05, ]
  - [24700, -48153.9629623605, 1813.96464593289, -46339.9983164276, 1203.24455218734, 53.2582, 53.2582, 53.2582, 151063.468704641, -834.179693763704, -706.419004796525, -863.86275742294, -932.257319071648, -50001.5718516764, 2.46363547127047e-05, ]
  - [24800, -48150.038647478, 1830.74601881406, -46319.2926286639, 1214.37602354361, 53.2582, 53.2582, 53.2582, 151063.468704641, -326.094885571373, 116.549016547902, 282.368042423716, -1377.20171568572, -50008.2856762847, 2.7276687086994e-05, ]
  - [24900, -48146.5214978673, 1822.49610454972, -46324.0253933176, 1208.90366529405, 53.2582, 53.2582, 53.2582, 151063.468704641, 335.194920872074, 1215.3882718526, 157.308352012518, -367.111861248891, -49983.204665239, 3.01344268247409e-05, ]
  - [25000, -48157.9644298125, 1831.6543857011, -46326.3100441114, 1214.97856423296, 53.2582, 53.2582, 53.2582, 151063.468704641, -1333.2750510806, -764.682640453709, -1425.29372248255, -1809.84879030554, -50017.1898389839, 3.322220703125e-05, ]
  - [25100, -48154.96801926, 1792.7555903382, -46362.2124289218, 1189.17609685191, 53.2582, 53.2582, 53.2582, 151063.468704641, -913.531904568284, -1715.7560776778, -1152.01393651635, 127.174300489301, -50012.9606573211, 3.6553089004642e-05, ]
  - [25200, -48165.5515599809, 1820.87097719019, -46344.6805827908, 1207.82568086566, 53.2582, 53.2582, 53.2582, 151063.468704641, -1604.3056606973, -1332.58192469562, -2918.47195843054, -561.863098965763, -50018.8235881915, 4.01405654714096e-05, ]
  - [25300, -48150.1664191093, 1805.44634772392, -46344.7200713854, 1197.59416868244, 53.2582, 53.2582, 53.2582, 151063.468704641, -346.877276883061, -977.565018753938, 84.7457753046399, -147.812587199887, -50004.8204196719, 4.39985636403039e-05, ]
  - [25400, -48142.0062023027, 1802.59498011461, -46339.4112221881, 1195.70279083784, 53.2582, 53.2582, 53.2582, 151063.468704641, 281.08678514943, -732.015760285645, 46.4410579052761, 1528.83505782867, -49989.1059121813, 4.81414480766634e-05, ]
  - [25500, -48152.4468985576, 1804.71222663077, -46347.7346719268, 1197.10720924364, 53.2582, 53.2582, 53.2582, 151063.468704641, -1383.54973454411, -1654.1482397662, -639.712984013755, -1856.78797985237, -50032.4261858314, 5.25840233992879e-05, ]
  - [25600, -48157.9600534697, 1809.20021574463, -46348.7598377251, 1200.08419584789, 53.2582, 53.2582, 53.2582, 151063.468704641, -647.277345256583, -1540.72538190159, 1134.9248029028, -1536.03145677096, -49990.9111103929, 5.7341536801945e-05, ]
  - [25700, -48145.3400310162, 1800.48359037359, -46344.8564406426, 1194.30225736597, 53.2582, 53.2582, 53.2582, 151063.468704641, 335.128331593453, 305.115928398353, 1317.27549242506, -617.006426043047, -49992.4458215473, 6.24296804015908e-05, ]
  - [25800, -48140.6726661637, 1788.18900631987, -46352.4836598439, 1186.14697643631, 53.2582, 53.2582, 53.2582, 151063.468704641, 428.692297366033, 223.712731933135, 827.293531917943, 235.070628247031, -49980.0685877663, 6.78645934153687e-05, ]
  - [25900, -48128.1182333957, 1791.04859229616, -46337.0696410996, 1188.04380571311, 53.2582, 53.2582, 53.2582, 151063.468704641, 1649.36617904666, 1514.18071259705, 1011.70196414143, 2422.21586040151, -49973.3361622357, 7.36628641684442e-05, ]
  - [26000, -48136.1682725065, 1775.65621609086, -46360.5120564156, 1177.83368786116, 53.2582, 53.2582, 53.2582, 151063.468704641, 357.673729538246, -151.110809815515, 873.832846234627, 350.299152195629, -49947.8200178928, 7.98415319347201e-05, ]
  - [26100, -48150.3501815831, 1796.22367426135, -46354.1265073217, 1191.4765568396, 53.2582, 53.2582, 53.2582, 151063.468704641, 25.8810042488718, 609.303789550202, 141.11407662975, -672.774853433339, -49932.4335398661, 8.64180886124637e-05, ]
  - [26200, -48123.2048659666, 1802.61581460831, -46320.5890513583, 1195.71661083764, 53.2582, 53.2582, 53.2582, 151063.468704641, 2037.59026223939, 1840.35052240518, 2337.05091105787, 1935.36935325513, -49953.0559252497, 9.34104802368714e-05, ]
  - [26300, -48138.2339253685, 1824.51236145209, -46313.7215639165, 1210.24109496172, 53.2582, 53.2582, 53.2582, 151063.468704641, 772.49031126175, 1100.65135917106, -229.189530611539, 1446.00910522573, -49961.1344364951, 0.000100837108331577, ]
  - [26400, -48155.3230982303, 1838.45569468281, -46316.8674035475, 1219.49002921566, 53.2582, 53.2582, 53.2582, 151063.468704641, -961.486253291176, -548.073869838297, -793.04479979804, -1543.34009023719, -49982.4941377275, 0.000108716831101108, ]
  - [26500, -48140.1667264842, 1825.26497260134, -46314.9017538829, 1210.74031928083, 53.2582, 53.2582, 53.2582, 151063.468704641, 701.69410537529, 982.202542666103, 131.580950702244, 991.298822757522, -49998.4954848732, 0.000117068964466276, ]
  - [26600, -48145.1557655785, 1817.65295389214, -46327.5028116864, 1205.6910918532, 53.2582, 53.2582, 53.2582, 151063.468704641, -54.2596633292745, -477.730095503466, 1.27433545313805, 313.676770062506, -49993.0640322783, 0.000125913282944476, ]
  - [26700, -48139.9719348266, 1788.88866932051, -46351.0832655061, 1186.61107902827, 53.2582, 53.2582, 53.2582, 151063.468704641, 260.358738483008, -428.327854687958, 729.739663019559, 479.664407117431, -50021.7347014893, 0.000135270020376872, ]
  - [26800, -48161.6803536659, 1787.67969548602, -46374.0006581799, 1185.80913882323, 53.2582, 53.2582, 53.2582, 151063.468704641, -1571.18907197021, -1814.78714198761, -1666.2417115552, -1232.53836236782, -50007.6924903054, 0.000145159870504403, ]
  - [26900, -48166.5006995305, 1809.70343522167, -46356.7972643088, 1200.41799292363, 53.2582, 53.2582, 53.2582, 151063.468704641, -1754.30943644275, -2163.68593435845, -1414.30576157643, -1684.93661339336, -49964.8144896433, 0.000155603987394582, ]
  - [27000, -48123.7706900988, 1797.33779938369, -46326.4328907152, 1192.21558170809, 53.2582, 53.2582, 53.2582, 151063.468704641, 2275.98053181025, 2378.21161028183, 2353.3058412378, 2096.42414391113, -49940.0310279662, 0.00016662398572099, ]
  - [27100, -48166.2852792159, 1809.5174785924, -46356.7678006235, 1200.29464360609, 53.2582, 53.2582, 53.2582, 151063.468704641, -2480.78252782431, -1798.67791646043, -2039.49078244702, -3604.17888456548, -49958.7110426169, 0.000178241940897419, ]
  - [27200, -48135.563570846, 1808.32372992562, -46327.2398409204, 1199.50280260566, 53.2582, 53.2582, 53.2582, 151063.468704641, 1254.38525882603, 1474.2816232142, 1200.81633956019, 1088.05781370371, -49927.7154694343, 0.000190480389068545, ]
  - [27300, -48159.0326255839, 1819.06094956879, -46339.9716760151, 1206.62504783257, 53.2582, 53.2582, 53.2582, 151063.468704641, -1085.42348853552, -1307.65008687346, -1673.36806049439, -275.252318238689, -49891.2999173533, 0.000203362326959055, ]
  - [27400, -48146.1442777627, 1801.92450391209, -46344.2197738506, 1195.25804852169, 53.2582, 53.2582, 53.2582, 151063.468704641, 452.043176303082, -247.319193737376, 486.426195573951, 1117.02252707268, -49890.7163988242, 0.000216911211583103, ]
  - [27500, -48151.1012180206, 1800.20262192623, -46350.8985960943, 1194.11588451996, 53.2582, 53.2582, 53.2582, 151063.468704641, 177.156657340929, 209.07997831668, 321.681564560064, 0.708429146039925, -49927.0490227531, 0.000231150959815979, ]
  - [27600, -48152.4348729086, 1803.31858172361, -46349.116291185, 1196.18277246039, 53.2582, 53.2582, 53.2582, 151063.468704641, -885.817776634403, -1016.36798444998, -310.710916914561, -1330.37442853866, -49961.0447837645, 0.00024610594782986, ]
  - [27700, -48131.2639357717, 1805.27689488422, -46325.9870408874, 1197.48176670884, 53.2582, 53.2582, 53.2582, 151063.468704641, 1532.31888192079, 1408.89343541664, 1407.37570096638, 1780.68750937935, -49960.86271366, 0.000261801010395495, ]
  - [27800, -48153.9417749225, 1825.91377541491, -46328.0279995075, 1211.17068513863, 53.2582, 53.2582, 53.2582, 151063.468704641, -697.598839979739, -999.631713976734, -609.755449534956, -483.409356427528, -49953.828279834, 0.000278261440051671, ]
  - [27900, -48167.1469276083, 1818.31138314435, -46348.835544464, 1206.1278431496, 53.2582, 53.2582, 53.2582, 151063.468704641, -1756.71255666224, -691.906107045887, -1750.17120670855, -2828.06035623229, -49979.3342337546, 0.000295512986144304, ]
  - [28000, -48153.5617344597, 1798.96018112069, -46354.6015533391, 1193.29174490178, 53.2582, 53.2582, 53.2582, 151063.468704641, -930.482033498934, -1121.70468647143, -604.236173518325, -1065.50524050705, -49940.3615431808, 0.00031358185373696, ]
  - [28100, -48147.2675375339, 1773.65627736717, -46373.6112601667, 1176.50708241745, 53.2582, 53.2582, 53.2582, 151063.468704641, -653.552077125187, -656.730008181406, -915.827923781082, -388.098299413076, -49901.1417407326, 0.000332494702394641, ]
  - [28200, -48148.8307237442, 1811.40967634166, -46337.4210474025, 1201.54978197859, 53.2582, 53.2582, 53.2582, 151063.468704641, -47.0801122157675, 189.615165582947, -595.792703103569, 264.937200873324, -49883.5510791951, 0.000352278644842627, ]
  - [28300, -48133.3770461023, 1775.51166525074, -46357.8653808516, 1177.73780395776, 53.2582, 53.2582, 53.2582, 151063.468704641, 1085.86231127567, 1343.70063271105, 469.788877100854, 1444.09742401509, -49902.8152529762, 0.000372961245502164, ]
  - [28400, -48145.3346298183, 1811.77028683409, -46333.5643429843, 1201.78898322843, 53.2582, 53.2582, 53.2582, 151063.468704641, 63.8506785947353, 307.653917977002, -245.604969963475, 129.503087770687, -49875.0404454116, 0.000394570518904788, ]
  - [28500, -48146.5718950166, 1806.23671417117, -46340.3351808454, 1198.11843696077, 53.2582, 53.2582, 53.2582, 151063.468704641, 49.9235736118632, 421.810755779538, 437.382930200499, -709.42296514445, -49843.941963834, 0.000417134927987054, ]
  - [28600, -48135.0817233201, 1827.23147767394, -46307.8502456462, 1212.0447474133, 53.2582, 53.2582, 53.2582, 151063.468704641, 1560.48010369044, 1726.04508900798, 708.062671519385, 2247.33255054397, -49816.9675730114, 0.000440683382267422, ]
  - [28700, -48153.9056240112, 1786.93548393777, -46366.9701400734, 1185.31548615303, 53.2582, 53.2582, 53.2582, 151063.468704641, -895.350426516286, -251.652122244398, -543.398506901525, -1891.00065040292, -49847.4312908374, 0.000465245235907057, ]
  - [28800, -48163.894979841, 1811.01413106245, -46352.8808487785, 1201.2874076796, 53.2582, 53.2582, 53.2582, 151063.468704641, -1794.10832189871, -1373.94208410252, -2501.46351090428, -1506.91937068933, -49835.1086112838, 0.000490850285656287, ]
  - [28900, -48145.2666178269, 1810.6344512668, -46334.6321665601, 1201.03555732149, 53.2582, 53.2582, 53.2582, 151063.468704641, -205.655468410505, 546.678333809456, -879.376872954855, -284.267866086111, -49831.7348632671, 0.000517528768688429, ]
  - [29000, -48152.4934831238, 1843.81827148271, -46308.6752116411, 1223.0471499868, 53.2582, 53.2582, 53.2582, 151063.468704641, 137.498172292543, 457.565888548921, -365.058854108311, 319.987482437026, -49803.6932051497, 0.00054531136032273, ]
  - [29100, -48155.5256891118, 1784.6231047904, -46370.9025843214, 1183.78163177616, 53.2582, 53.2582, 53.2582, 151063.468704641, -1106.20789411133, -704.029921065578, -1231.80399485707, -1382.78976641133, -49819.4634503908, 0.000574229171638096, ]
  - [29200, -48164.2995354736, 1781.04595236798, -46383.2535831056, 1181.40882413943, 53.2582, 53.2582, 53.2582, 151063.468704641, -1108.9990442438, -565.507946570353, -1794.41547390731, -967.073712253732, -49806.7831559718, 0.000604313746979337, ]
  - [29300, -48154.0420283563, 1809.87498012769, -46344.1670482286, 1200.53178261302, 53.2582, 53.2582, 53.2582, 151063.468704641, -343.393675694215, -310.53386554168, -612.203020128694, -107.444141412267, -49798.8057618274, 0.000635597061357593, ]
  - [29400, -48152.8762816935, 1806.30851744665, -46346.5677642468, 1198.16606572809, 53.2582, 53.2582, 53.2582, 151063.468704641, -391.540155894348, -661.598838823476, 85.7236741127449, -598.745302972314, -49816.6719157931, 0.000668111517746635, ]
  - [29500, -48165.2148186538, 1811.87935742973, -46353.3354612241, 1201.86133226803, 53.2582, 53.2582, 53.2582, 151063.468704641, -1353.1631738547, -2145.7761624514, -1071.22644849264, -842.486910620064, -49834.5866466443, 0.000701889944276683, ]
  - [29600, -48142.744512424, 1805.58950672476, -46337.1550056992, 1197.68912934677, 53.2582, 53.2582, 53.2582, 151063.468704641, 514.639338737225, 167.088828909109, 506.133772717616, 870.69541458495, -49836.0933929363, 0.000736965591327429, ]
  - [29700, -48147.981754278, 1827.7277677479, -46320.2539865301, 1212.37394805629, 53.2582, 53.2582, 53.2582, 151063.468704641, 502.696947930665, -368.83518139733, 813.672271996018, 1063.25375319331, -49818.5797017532, 0.000773372128521878, ]
  - [29800, -48140.2550385917, 1821.08855808365, -46319.1664805081, 1207.97000728641, 53.2582, 53.2582, 53.2582, 151063.468704641, 898.469752776311, 128.23950349407, 880.069938767897, 1687.09981606697, -49771.3134602578, 0.00081114364162266, ]
  - [29900, -48140.9141128432, 1810.24963058061, -46330.6644822626, 1200.7802968922, 53.2582, 53.2582, 53.2582, 151063.468704641, 813.742794008869, 1128.07961537722, 742.214425464305, 570.934341185074, -49769.2295747325, 0.000850314629332433, ]
  - [30000, -48151.0412841385, 1814.94335693901, -46336.0979271995, 1203.89375375194, 53.2582, 53.2582, 53.2582, 151063.468704641, 513.513902552554, 746.568706658614, 417.09867439627, 376.874326602787, -49786.1967338867, 0.000890920000000001, ]
  - [30100, -48139.5240173142, 1804.07852029619, -46335.445497018, 1196.68685722824, 53.2582, 53.2582, 53.2582, 151063.468704641, 632.935159982933, 1295.25497465346, -500.352430428791, 1103.90293572412, -49805.3873787076, 0.000932995068233718, ]
  - [30200, -48149.1025383984, 1817.41016396154, -46331.6923744368, 1205.53004369718, 53.2582, 53.2582, 53.2582, 151063.468704641, 214.434713318638, 480.417931056871, -405.307032724942, 568.193241623982, -49859.556374239, 0.000976575551423828, ]
  - [30300, -48150.656802539, 1819.5133667248, -46331.1434358142, 1206.92514655804, 53.2582, 53.2582, 53.2582, 151063.468704641, 7.61481323095208, -15.4354834438079, 1279.5775171318, -1241.29759399514, -49889.8384299491, 0.00102169756617526, ]
  - [30400, -48152.5536861972, 1803.30932191688, -46349.2443642803, 1196.17663021719, 53.2582, 53.2582, 53.2582, 151063.468704641, -45.9206045972663, -205.565093108699, 686.262629806484, -618.459350489591, -49889.390081255, 0.00106839762465251, ]
  - [30500, -48148.9753633632, 1805.91875940877, -46343.0566039545, 1197.90753023965, 53.2582, 53.2582, 53.2582, 151063.468704641, -41.7809118941614, 379.904868258868, -527.895949496027, 22.6483455546838, -49868.1436768166, 0.00111671263083812, ]
  - [30600, -48155.7534283364, 1826.52274264083, -46329.2306856956, 1211.57462713314, 53.2582, 53.2582, 53.2582, 151063.468704641, -680.920363072889, 191.799151325036, -2132.61240706245, -101.947833481248, -49858.1003074937, 0.00116667987670637, ]
  - [30700, -48149.20742623, 1810.08781315847, -46339.1196130715, 1200.67295966704, 53.2582, 53.2582, 53.2582, 151063.468704641, -405.504297881463, 839.028311510966, -980.712133565195, -1074.82907159016, -49904.4655530708, 0.00121833703831365, ]
  - [30800, -48156.7463628575, 1803.20416051523, -46353.5422023423, 1196.10687423605, 53.2582, 53.2582, 53.2582, 151063.468704641, -419.833224659189, 54.350681563707, -441.619911269472, -872.230444271802, -49857.9770900371, 0.00127172217180712, ]
  - [30900, -48144.7641096025, 1793.3881790973, -46351.3759305052, 1189.59570755373, 53.2582, 53.2582, 53.2582, 151063.468704641, 10.3425539664577, 400.735152698751, -1256.63017375606, 886.922682956681, -49869.6663237156, 0.00132687370935312, ]
  - [31000, -48133.6239440069, 1799.08959980295, -46334.5343442039, 1193.37759129616, 53.2582, 53.2582, 53.2582, 151063.468704641, 1418.29701031368, 1603.28020956019, 907.203882364668, 1744.40693901618, -49840.7819613698, 0.00138383045498687, ]
  - [31100, -48163.0202949869, 1780.99242074384, -46382.0278742431, 1181.37331537951, 53.2582, 53.2582, 53.2582, 151063.468704641, -1411.86375845568, -1538.04647432429, -1407.59674709423, -1289.9480539485, -49848.7638748287, 0.00144263158038501, ]
  - [31200, -48165.8656408203, 1785.85991473454, -46380.0057260858, 1184.6020363142, 53.2582, 53.2582, 53.2582, 151063.468704641, -1551.76752296502, -0.823094131198179, -2394.02072039525, -2260.45875436862, -49836.8564228166, 0.00150331662056234, ]
  - [31300, -48164.9800716693, 1803.83204508057, -46361.1480265887, 1196.52336453774, 53.2582, 53.2582, 53.2582, 151063.468704641, -2103.22998703725, -1610.55765852514, -2309.82573825446, -2389.30656433215, -49849.5591061765, 0.00156592546949443, ]
  - [31400, -48151.6523100983, 1819.91839059653, -46331.7339195017, 1207.19380822587, 53.2582, 53.2582, 53.2582, 151063.468704641, -340.324920700047, 404.68967470717, -1085.34156391084, -340.322872896463, -49853.0174464599, 0.00163049837566735, ]
  - [31500, -48162.4571081558, 1806.13487544076, -46356.3222327151, 1198.05088498403, 53.2582, 53.2582, 53.2582, 151063.468704641, -1177.63664201303, -1629.40418413345, -1684.94315730834, -218.562584597316, -49832.9506332705, 0.00169707593755625, ]
  - [31600, -48161.388456216, 1793.74058037774, -46367.6478758383, 1189.82946344408, 53.2582, 53.2582, 53.2582, 151063.468704641, -1069.13293869302, -449.40455551505, -1993.35918308186, -764.635077482137, -49846.3078336549, 0.00176569909903396, ]
  - [31700, -48163.1332326968, 1807.170836652, -46355.9623960448, 1198.73806192902, 53.2582, 53.2582, 53.2582, 151063.468704641, -2009.32906018862, -2074.05403027504, -2423.03051742138, -1530.90263286945, -49839.6020219457, 0.0018364091447113, ]
[...]
  - [232600, -48155.4370194565, 1808.59384401681, -46346.8431754397, 1199.68197550708, 53.2582, 53.2582, 53.2582, 151063.468704641, -145.509974674463, -406.638522774617, -1191.61099646196, 1161.7195952132, -49947.927999414, 0.000216911211583102, ]
  - [232700, -48150.2914858956, 1811.60468299488, -46338.6868029008, 1201.67913438556, 53.2582, 53.2582, 53.2582, 151063.468704641, -565.103116001552, -869.760990403352, -738.119254211682, -87.4291033896174, -49983.2910258181, 0.000203362326959055, ]
  - [232800, -48164.5180501756, 1823.18338797815, -46341.3346621974, 1209.35955623047, 53.2582, 53.2582, 53.2582, 151063.468704641, -1384.25473467366, -2066.50303210293, -1505.01969590547, -581.241476012592, -49985.6837638004, 0.000190480389068545, ]
  - [232900, -48131.4575585493, 1803.67140817295, -46327.7861503763, 1196.41681037506, 53.2582, 53.2582, 53.2582, 151063.468704641, 1025.81535157694, 937.802414135217, 1098.54488813444, 1041.09875246117, -49984.610530186, 0.000178241940897418, ]
  - [233000, -48149.1965643049, 1799.37079768946, -46349.8257666154, 1193.56411633445, 53.2582, 53.2582, 53.2582, 151063.468704641, 65.3668722666699, 567.432098357961, -353.219341123587, -18.112140434362, -49968.7655795269, 0.000166623985720989, ]
  - [233100, -48147.3642681945, 1826.01429240207, -46321.3499757925, 1211.23736037261, 53.2582, 53.2582, 53.2582, 151063.468704641, -522.462635994789, -779.759975233799, -789.912868471032, 2.28493572047526, -49970.5615797513, 0.000155603987394581, ]
  - [233200, -48134.857374274, 1797.34754091666, -46337.5098333574, 1192.22204349141, 53.2582, 53.2582, 53.2582, 151063.468704641, 2065.11747227547, 2104.18177267102, 1934.91958479633, 2156.25105935907, -49950.1312251742, 0.000145159870504403, ]
  - [233300, -48149.4797746655, 1784.97085995706, -46364.5089147084, 1184.01230579216, 53.2582, 53.2582, 53.2582, 151063.468704641, -828.70307596736, -604.985004601849, -1338.22225229316, -542.901971007064, -49985.9225912479, 0.000135270020376871, ]
  - [233400, -48150.5717136029, 1796.43511042454, -46354.1366031784, 1191.61680731916, 53.2582, 53.2582, 53.2582, 151063.468704641, 104.01224295015, 36.499103455096, 368.814659324663, -93.2770339293074, -49989.9461367101, 0.000125913282944476, ]
  - [233500, -48140.0242546202, 1794.90925981071, -46345.1149948095, 1190.60467544401, 53.2582, 53.2582, 53.2582, 151063.468704641, 681.364201623409, 1038.47903686584, 499.486294945526, 506.127273058848, -49979.5810927892, 0.000117068964466275, ]
  - [233600, -48164.2523885732, 1790.32297597947, -46373.9294125937, 1187.56248768853, 53.2582, 53.2582, 53.2582, 151063.468704641, -1526.97875573811, -1865.082746596, -1164.15926565333, -1551.69425496501, -49951.9977025585, 0.000108716831101108, ]
  - [233700, -48154.6443521677, 1801.90991409764, -46352.7344380701, 1195.24837076155, 53.2582, 53.2582, 53.2582, 151063.468704641, -1027.05973994135, -1685.04531526382, -871.99216361984, -524.141740940395, -50001.8682051428, 0.000100837108331576, ]
  - [233800, -48158.7497866542, 1818.83740035656, -46339.9123862976, 1206.47676248844, 53.2582, 53.2582, 53.2582, 151063.468704641, -1177.00354753157, -1339.67569443929, -864.759409801762, -1326.57553835366, -50032.6232672494, 9.34104802368709e-05, ]
  - [233900, -48149.080293603, 1802.52571923237, -46346.5545743706, 1195.65684849855, 53.2582, 53.2582, 53.2582, 151063.468704641, -338.617934303322, -261.168471430614, -322.483055220598, -432.20227625875, -50054.7964120567, 8.64180886124633e-05, ]
  - [234000, -48156.6785546479, 1795.3147655054, -46361.3637891425, 1190.87365671611, 53.2582, 53.2582, 53.2582, 151063.468704641, -1399.94336677419, -1587.66177637846, -790.527803054817, -1821.64052088929, -50036.3387130995, 7.98415319347196e-05, ]
  - [234100, -48157.8690362722, 1793.10982555025, -46364.7592107219, 1189.41106923136, 53.2582, 53.2582, 53.2582, 151063.468704641, -1271.60195689511, -2424.57461913156, -774.242039844043, -615.989211709731, -50019.2788074869, 7.36628641684439e-05, ]
  - [234200, -48145.6011190783, 1812.63345464414, -46332.9676644341, 1202.3615423284, 53.2582, 53.2582, 53.2582, 151063.468704641, -379.649777340367, -196.296920870808, -61.076241890474, -881.576169259818, -50032.2524847135, 6.78645934153684e-05, ]
  - [234300, -48144.854578869, 1791.2183416169, -46353.6362372521, 1188.15640434941, 53.2582, 53.2582, 53.2582, 151063.468704641, 411.837666487432, 471.319168275773, -147.154029323735, 911.34786051026, -49991.2335779928, 6.24296804015905e-05, ]
  - [234400, -48140.2833965114, 1779.98549619704, -46360.2979003144, 1180.70539912319, 53.2582, 53.2582, 53.2582, 151063.468704641, 295.618162595376, 597.213601390439, 209.101244492886, 80.539641902795, -49971.2348051964, 5.73415368019447e-05, ]
  - [234500, -48168.1388249897, 1798.85282196852, -46369.2860030212, 1193.22053110208, 53.2582, 53.2582, 53.2582, 151063.468704641, -2152.78557601719, -1713.06397700697, -2683.92212677744, -2061.37062426716, -50000.3970932824, 5.25840233992875e-05, ]
  - [234600, -48164.6668332024, 1805.88289354766, -46358.7839396548, 1197.88373958746, 53.2582, 53.2582, 53.2582, 151063.468704641, -2076.79017543238, -2550.67305940051, -2121.79430328095, -1557.90316361569, -50006.5412317346, 4.81414480766631e-05, ]
  - [234700, -48161.3079125029, 1781.66533859778, -46379.6425739052, 1181.81967729931, 53.2582, 53.2582, 53.2582, 151063.468704641, -535.633722533057, -302.680811804327, -1094.06330395146, -210.157051843382, -50014.209123103, 4.39985636403036e-05, ]
  - [234800, -48140.7240426275, 1789.58414721585, -46351.1398954116, 1187.07240554343, 53.2582, 53.2582, 53.2582, 151063.468704641, 876.292397367571, -2.39276334493948, 1213.41188130727, 1417.85807414038, -50051.3776230864, 4.01405654714093e-05, ]
  - [234900, -48137.4821455038, 1813.43605351423, -46324.0460919896, 1202.8939246547, 53.2582, 53.2582, 53.2582, 151063.468704641, 1600.44828378745, 2080.47461990398, 1721.18742628863, 999.682805169746, -50021.656079846, 3.65530890046418e-05, ]
  - [235000, -48143.1839746114, 1830.22598089471, -46312.9579937167, 1214.03107040751, 53.2582, 53.2582, 53.2582, 151063.468704641, 633.577087088042, 711.428101537415, -90.8724924299534, 1280.17565215665, -50031.0924457075, 3.32222070312498e-05, ]
  - [235100, -48156.4996742031, 1795.69387897383, -46360.8057952293, 1191.12513141634, 53.2582, 53.2582, 53.2582, 151063.468704641, -1182.10426270717, -838.406254062399, -1567.30976275104, -1140.59677130807, -50017.7842466258, 3.01344268247407e-05, ]
  - [235200, -48160.970795023, 1807.00131300055, -46353.9694820225, 1198.62561298436, 53.2582, 53.2582, 53.2582, 151063.468704641, -1313.2704337631, -1857.14006826429, -1823.99911207905, -258.67212094596, -50014.8155776259, 2.72766870869938e-05, ]
  - [235300, -48157.3669501629, 1797.86334623104, -46359.5036039319, 1192.56418904309, 53.2582, 53.2582, 53.2582, 151063.468704641, -707.989536642518, -1132.47167147934, -813.237538391012, -178.2594000572, -50034.8922417616, 2.46363547127045e-05, ]
  - [235400, -48154.1529801794, 1813.26105256062, -46340.8919276187, 1202.7778424893, 53.2582, 53.2582, 53.2582, 151063.468704641, -1251.71018100477, -1308.14000783983, -1943.18542116513, -503.80511400936, -50070.963990946, 2.22012213700348e-05, ]
  - [235500, -48144.8417985925, 1821.26425008863, -46323.5775485038, 1208.08654784211, 53.2582, 53.2582, 53.2582, 151063.468704641, 274.039250804148, -5.89423260282552, -270.243397280998, 1098.25538229627, -50055.7775955946, 1.99594998953343e-05, ]
  - [235600, -48145.3843256867, 1800.56851550945, -46344.8158101773, 1194.35859016567, 53.2582, 53.2582, 53.2582, 151063.468704641, 284.349124249607, 824.010111526507, -405.661403253299, 434.69866447562, -50000.2768699525, 1.78998204997852e-05, ]
  - [235700, -48140.9059340388, 1830.33591127909, -46310.5700227597, 1214.1039897648, 53.2582, 53.2582, 53.2582, 151063.468704641, 697.594722169908, 1751.65917905942, -1041.40694072828, 1382.53192817858, -50008.525821199, 1.6011226785813e-05, ]
  - [235800, -48137.4383594968, 1806.63417580094, -46330.8041836959, 1198.38208241924, 53.2582, 53.2582, 53.2582, 151063.468704641, 726.910889842513, 1363.04216458494, 116.516517352103, 701.173987590491, -49982.1330235826, 1.42831715710918e-05, ]
  - [235900, -48150.4170164721, 1832.09606961908, -46318.320946853, 1215.27154335429, 53.2582, 53.2582, 53.2582, 151063.468704641, -792.665406872735, -974.53610766131, -871.764423278694, -531.695689678205, -49997.8982316123, 1.27055125179639e-05, ]
  - [236000, -48145.1094293, 1808.0856108806, -46337.0238184194, 1199.34485275568, 53.2582, 53.2582, 53.2582, 151063.468704641, -161.277374476059, 4.61133085730145, -425.18480695625, -63.258647329224, -49971.9829087685, 1.12685075660799e-05, ]
  - [236100, -48147.0019763569, 1816.55132841018, -46330.4506479467, 1204.96035828422, 53.2582, 53.2582, 53.2582, 151063.468704641, -102.891442114767, 237.415003524157, -1231.2192053534, 685.12987548495, -49971.1772771008, 9.96281016605479e-06, ]
  - [236200, -48133.3598423524, 1829.4116205136, -46303.9482218388, 1213.4908863999, 53.2582, 53.2582, 53.2582, 151063.468704641, 1531.33428497578, 2288.69708829596, 91.0155857774685, 2214.29018085392, -49939.6125729263, 8.77946431192305e-06, ]
  - [236300, -48121.3840017326, 1822.83296764685, -46298.5510340857, 1209.12711434933, 53.2582, 53.2582, 53.2582, 151063.468704641, 2544.1019334647, 2401.63740489844, 2022.41631455416, 3208.25208094148, -49967.8528214641, 7.70989937016554e-06, ]
  - [236400, -48135.7896602783, 1801.036623158, -46334.7530371203, 1194.66909675642, 53.2582, 53.2582, 53.2582, 151063.468704641, 776.958953325677, 1643.9032582713, 460.515832033429, 226.457769672298, -49951.6531569317, 6.74592470306788e-06, ]
  - [236500, -48133.3740283109, 1826.66479564096, -46306.70923267, 1211.66885416172, 53.2582, 53.2582, 53.2582, 151063.468704641, 1474.46741159494, 1994.51322236756, 1159.91495304808, 1268.97405936919, -49940.0446930043, 5.87972408415909e-06, ]
  - [236600, -48139.6814486722, 1795.5258287099, -46344.1556199623, 1191.01365980358, 53.2582, 53.2582, 53.2582, 151063.468704641, 1010.3419755445, 1420.85368335319, 558.755807243885, 1051.41643603643, -49975.3061341948, 5.10384990346715e-06, ]
  - [236700, -48145.8985680366, 1808.48737483235, -46337.4111932043, 1199.61135204346, 53.2582, 53.2582, 53.2582, 151063.468704641, 80.483049769786, 936.413294679278, -1135.72681441586, 440.762669045938, -50019.9957232081, 4.41121716031669e-06, ]
  - [236800, -48159.2276721915, 1809.38990465419, -46349.8377675373, 1200.21002087296, 53.2582, 53.2582, 53.2582, 151063.468704641, -1274.35252213747, -1494.53195569773, -1907.3503236297, -421.175287084983, -50066.1377085353, 3.79509724138197e-06, ]
  - [236900, -48154.1989466248, 1791.83768062465, -46362.3612660002, 1188.56722618582, 53.2582, 53.2582, 53.2582, 151063.468704641, -697.111652286236, -1270.64497188011, -51.1605748406893, -769.529410137907, -50043.487301549, 3.24911148169665e-06, ]
  - [237000, -48153.8952229247, 1799.27134079431, -46354.6238821304, 1193.49814428393, 53.2582, 53.2582, 53.2582, 151063.468704641, -325.916963115243, -557.033008651311, -1220.71463346011, 799.996752765699, -50037.8641881046, 2.76722450630996e-06, ]
  - [237100, -48149.5092147655, 1807.8658599674, -46341.6433547981, 1199.19908691083, 53.2582, 53.2582, 53.2582, 151063.468704641, -310.203335224231, -971.967343848532, -203.709938100037, 245.067276275866, -50025.4779262171, 2.34373735026696e-06, ]
  - [237200, -48142.2278901327, 1798.61909972816, -46343.6087904045, 1193.06549775395, 53.2582, 53.2582, 53.2582, 151063.468704641, 157.373678367024, 960.695318881254, -822.411477415014, 333.837193634842, -50045.4518423962, 1.97328035457889e-06, ]
  - [237300, -48142.3750441348, 1804.68801241871, -46337.6870317161, 1197.09114739876, 53.2582, 53.2582, 53.2582, 151063.468704641, 433.956876204771, -10.587666436649, 274.676029179995, 1037.78226587097, -50062.1820420559, 1.65080583583743e-06, ]
  - [237400, -48150.4701811014, 1816.49139938217, -46333.9787817192, 1204.92060597889, 53.2582, 53.2582, 53.2582, 151063.468704641, -679.270721648475, 552.94928467791, -1535.10418759942, -1055.65726202391, -50067.7194101688, 1.37158052711493e-06, ]
  - [237500, -48150.8284769965, 1819.26920308109, -46331.5592739154, 1206.76318718645, 53.2582, 53.2582, 53.2582, 151063.468704641, -110.667188634658, 878.375981599215, -1338.78536735604, 128.407819852857, -50060.9890531325, 1.13117778778074e-06, ]
  - [237600, -48130.2691107658, 1818.1896099458, -46312.07950082, 1206.04706818075, 53.2582, 53.2582, 53.2582, 151063.468704641, 1967.27442606439, 2111.73875831505, 1953.92798042806, 1836.15653945007, -50088.3628809255, 9.25469579851505e-07, ]
  - [237700, -48141.8976243468, 1825.72578215452, -46316.1718421923, 1211.04598487674, 53.2582, 53.2582, 53.2582, 151063.468704641, 877.658039850811, -65.0491987309194, 1372.16539633766, 1325.8579219457, -50070.5762015281, 7.50618208481688e-07, ]
  - [237800, -48161.7680012625, 1815.65708187604, -46346.1109193865, 1204.36718395036, 53.2582, 53.2582, 53.2582, 151063.468704641, -1571.96326601802, -2334.1602377317, -1232.28048392966, -1149.44907639269, -50094.362095959, 6.03067824188189e-07, ]
  - [237900, -48137.2985088187, 1811.20669553122, -46326.0918132875, 1201.41514012936, 53.2582, 53.2582, 53.2582, 151063.468704641, 866.743132241327, -16.7886604120717, 1913.57201643824, 703.446040697811, -50144.5150583306, 4.79535684391034e-07, ]
  - [238000, -48151.9768848993, 1814.15036779149, -46337.8265171078, 1203.36774577607, 53.2582, 53.2582, 53.2582, 151063.468704641, -360.939783770547, 73.4109327219722, -621.767220510972, -534.463063522633, -50206.3382241004, 3.77003171839991e-07, ]
  - [238100, -48143.6596789778, 1773.429962467, -46370.2297165108, 1176.35696252878, 53.2582, 53.2582, 53.2582, 151063.468704641, -808.612276284844, -385.888951319821, -1991.72954093383, -48.2183366008851, -50223.4515234288, 2.92706567484834e-07, ]
  - [238200, -48146.1116436426, 1816.15698080703, -46329.9546628355, 1204.69877843138, 53.2582, 53.2582, 53.2582, 151063.468704641, -235.636390843241, -1601.43925106806, 454.428940168869, 440.101138369471, -50177.6918052028, 2.24127575334843e-07, ]
  - [238300, -48160.1612343436, 1824.47509746753, -46335.686136876, 1210.21637690202, 53.2582, 53.2582, 53.2582, 151063.468704641, -1326.5975954799, -1192.69496613315, -1337.13152094398, -1449.96629936258, -50130.3667215292, 1.68983596840973e-07, ]
  - [238400, -48146.4847751397, 1827.82014131487, -46318.6646338248, 1212.43522157199, 53.2582, 53.2582, 53.2582, 151063.468704641, -34.8759650659632, -101.36554320059, -227.419346600156, 224.156994602849, -50109.0788052578, 1.25217752321901e-07, ]
  - [238500, -48142.6718721508, 1810.0801053558, -46332.591766795, 1200.6678469039, 53.2582, 53.2582, 53.2582, 151063.468704641, 22.7020615751866, 720.865542690756, -890.744849804221, 237.985491839018, -50115.7625881038, 9.09886469429854e-08, ]
  - [238600, -48142.5734881993, 1804.30076820671, -46338.2727199926, 1196.83427938896, 53.2582, 53.2582, 53.2582, 151063.468704641, 150.235348024206, -84.8351079532227, 163.523426662355, 372.017725363479, -50104.3215229422, 6.46598787448784e-08, ]
  - [238700, -48124.7750158793, 1811.17580858944, -46313.5992072899, 1201.39465210909, 53.2582, 53.2582, 53.2582, 151063.468704641, 1840.77396538328, 1474.13450155606, 2250.18824903698, 1797.99914555681, -50097.4987852588, 4.47892862063161e-08, ]
  - [238800, -48133.7891727216, 1804.85016271307, -46328.9390100085, 1197.19870542575, 53.2582, 53.2582, 53.2582, 151063.468704641, 866.711973284557, 207.379216175646, 854.876864617775, 1537.87983906025, -50118.4636588401, 3.01179328132691e-08, ]
  - [238900, -48152.2410671838, 1810.21294861698, -46342.0281185669, 1200.7559649004, 53.2582, 53.2582, 53.2582, 151063.468704641, -739.698006500474, -1528.61775332573, -1316.74999303774, 626.273726862046, -50120.0589331774, 1.95588260943479e-08, ]
  - [239000, -48144.1203326824, 1801.08423376927, -46343.0360989131, 1194.70067797206, 53.2582, 53.2582, 53.2582, 151063.468704641, 879.330827732782, 536.513875255094, 137.590866119091, 1963.88774182415, -50129.1555948295, 1.21853685699994e-08, ]
  - [239100, -48145.9047525643, 1813.4925126719, -46332.4122398924, 1202.93137531508, 53.2582, 53.2582, 53.2582, 151063.468704641, -76.6214732744883, -864.10593785481, -272.659886418357, 906.901404449712, -50127.626713467, 7.21953805066191e-09, ]
  - [239200, -48144.0272212456, 1811.84167702979, -46332.1855442158, 1201.83633799041, 53.2582, 53.2582, 53.2582, 151063.468704641, 698.802021536888, 1039.41779222079, 235.04986608903, 821.938406300844, -50102.9149913862, 4.01979470665194e-09, ]
  - [239300, -48151.7880466131, 1789.82115853025, -46361.9668880829, 1187.22962061016, 53.2582, 53.2582, 53.2582, 151063.468704641, -1225.49485041294, -687.788904736911, -2344.53200585362, -644.163640648302, -50147.4347209605, 2.06871232013228e-09, ]
  - [239400, -48146.8216495469, 1801.49628547629, -46345.3253640707, 1194.97400136499, 53.2582, 53.2582, 53.2582, 151063.468704641, -276.917169461651, 516.485548650458, -786.555756953561, -560.681300081856, -50144.8454787281, 9.60331117066315e-10, ]
  - [239500, -48152.6063278636, 1791.80585968411, -46360.8004681795, 1188.54611862265, 53.2582, 53.2582, 53.2582, 151063.468704641, -469.95023982697, -482.169470009315, -355.775528766364, -571.905720705224, -50104.8481467315, 3.87229564589803e-10, ]
  - [239600, -48143.8234372091, 1785.60432551113, -46358.2191116979, 1184.4324980923, 53.2582, 53.2582, 53.2582, 151063.468704641, -81.1784698788366, 638.496431153003, -715.074821881082, -166.957018908431, -50111.1231905254, 1.27312506734493e-10, ]
  - [239700, -48152.5155987126, 1815.32783053861, -46337.187768174, 1204.14878395069, 53.2582, 53.2582, 53.2582, 151063.468704641, -1408.13764483703, -743.500224298808, -2162.9287674191, -1317.98394279318, -50141.7316887515, 3.03129989146573e-11, ]
  - [239800, -48135.8732296789, 1805.84928901125, -46330.0239406676, 1197.86144892404, 53.2582, 53.2582, 53.2582, 151063.468704641, 748.806163817629, 1318.20197044957, 249.72193288933, 678.494588113984, -50154.7368190209, 4.00518903939475e-12, ]
  - [239900, -48146.4053963878, 1801.1209610598, -46345.284435328, 1194.72504003024, 53.2582, 53.2582, 53.2582, 151063.468704641, -534.678278903354, -437.880223764567, -825.865307180374, -340.289305765129, -50131.2831387184, 1.25580539685001e-13, ]
  - [240000, -48151.8186665448, 1797.55776141237, -46354.2609051325, 1192.36148759071, 53.2582, 53.2582, 53.2582, 151063.468704641, -43.7970802574198, 10.579092032154, -366.084781966427, 224.114449162009, -50100.0873621309, 0, ]
...
Loop time of 128.658 on 64 procs for 100000 steps with 11664 atoms

Performance: 67.155 ns/day, 0.357 hours/ns, 777.253 timesteps/s, 9.066 Matom-step/s
71.9% CPU use with 64 MPI tasks x 1 OpenMP threads

MPI task timing breakdown:
Section |  min time  |  avg time  |  max time  |%varavg| %total
---------------------------------------------------------------
Pair    | 64.464     | 66.691     | 67.987     |   8.3 | 51.84
Neigh   | 0.42262    | 0.42939    | 0.44771    |   0.7 |  0.33
Comm    | 19.309     | 20.511     | 22.5       |  13.9 | 15.94
Output  | 0.32125    | 0.36631    | 0.36774    |   0.9 |  0.28
Modify  | 12.883     | 13.772     | 39.434     |  87.3 | 10.70
Other   |            | 26.89      |            |       | 20.90

Nlocal:         182.25 ave         193 max         169 min
Histogram: 1 2 3 7 9 17 11 9 3 2
Nghost:        1273.31 ave        1286 max        1262 min
Histogram: 4 0 7 13 9 16 7 6 1 1
Neighs:        7135.92 ave        7660 max        6648 min
Histogram: 3 4 6 7 12 14 9 4 3 2

Total # of neighbors = 456699
Ave neighs/atom = 39.154578
Neighbor list builds = 1146
Dangerous builds = 0
#------------------------------------------------------------------------------#
Total wall time: 0:04:59
