LAMMPS (2 Aug 2023)
OMP_NUM_THREADS environment is not set. Defaulting to 1 thread. (src/comm.cpp:98)
  using 1 OpenMP thread(s) per MPI task
#--------------------------- Simulation variables -----------------------------#
# Initalizes the random number generator.
variable RND equal round(random(0,999,${RANDOM}))
variable RND equal round(random(0,999,1))

# Simulation control parameters.
variable t_eq equal 20000 # Equilibration time.
variable t equal 100000 # Switching time.

#---------------------------- Atomic setup ------------------------------------#
units            metal
# Create atoms.
lattice          bcc ${a}
lattice          bcc 2.973488888888889
Lattice spacing in x,y,z = 2.9734889 2.9734889 2.9734889
region           sim_box block 0 18 0 18 0 18
create_box       1 sim_box
Created orthogonal box = (0 0 0) to (53.5228 53.5228 53.5228)
  4 by 4 by 4 MPI processor grid
create_atoms     1 box
Created 11664 atoms
  using lattice units in orthogonal box = (0 0 0) to (53.5228 53.5228 53.5228)
  create_atoms CPU = 0.001 seconds

# Define interatomic potential.
pair_style       eam
pair_coeff       * * ../Fe.eam
#----------------------------- Run simulation ---------------------------------#
# Initial temperature to accelerate equilibration.
velocity all create ${T} ${RND} mom yes rot yes dist gaussian
velocity all create 1500 ${RND} mom yes rot yes dist gaussian
velocity all create 1500 80 mom yes rot yes dist gaussian

# Integrator, Frenkel-Ladd modifier, and thermostat.
fix fe all nve
fix fti all ti/spring ${k} ${t} ${t_eq} function 2
fix fti all ti/spring 2.3723089714977887 ${t} ${t_eq} function 2
fix fti all ti/spring 2.3723089714977887 100000 ${t_eq} function 2
fix fti all ti/spring 2.3723089714977887 100000 20000 function 2
fix ft all langevin ${T} ${T} 0.1 ${RND} zero yes
fix ft all langevin 1500 ${T} 0.1 ${RND} zero yes
fix ft all langevin 1500 1500 0.1 ${RND} zero yes
fix ft all langevin 1500 1500 0.1 178 zero yes
compute tcom all temp/com
fix_modify ft temp tcom

# Setup thermo output.
variable dE equal pe-f_fti
variable lambda equal f_fti[1]

thermo_style custom step pe ke etotal temp lx ly lz vol press pxx pyy pzz v_dE v_lambda
thermo 100
thermo_modify line yaml
thermo_modify flush yes

# Forward integration.
run ${t_eq}
run 20000

CITE-CITE-CITE-CITE-CITE-CITE-CITE-CITE-CITE-CITE-CITE-CITE-CITE

Your simulation uses code contributions which should be cited:

- ti/spring command: doi:10.1016/j.commatsci.2015.10.050

@article{freitas2016,
  author={Freitas, Rodrigo and Asta, Mark and de Koning, Maurice},
  title={Nonequilibrium Free-Energy Calculation of Solids Using {LAMMPS}},
  journal={Computational Materials Science},
  volume={112},
  pages={333--341},
  year={2016},
  publisher={Elsevier}
}

CITE-CITE-CITE-CITE-CITE-CITE-CITE-CITE-CITE-CITE-CITE-CITE-CITE

Neighbor list info ...
  update: every = 1 steps, delay = 0 steps, check = yes
  max neighbors/atom: 2000, page size: 100000
  master list distance cutoff = 6.409104
  ghost atom cutoff = 6.409104
  binsize = 3.204552, bins = 17 17 17
  1 neighbor lists, perpetual/occasional/extra = 1 0 0
  (1) pair eam, perpetual
      attributes: half, newton on
      pair build: half/bin/atomonly/newton
      stencil: half/bin/3d
      bin: standard
Per MPI rank memory allocation (min/avg/max) = 3.736 | 3.736 | 3.736 Mbytes
---
keywords: ['Step', 'PotEng', 'KinEng', 'TotEng', 'Temp', 'Lx', 'Ly', 'Lz', 'Volume', 'Press', 'Pxx', 'Pyy', 'Pzz', 'v_dE', 'v_lambda', ]
data:
  - [0, -49216.9367101701, 2261.3416067025, -46955.5951034676, 1500, 53.5228, 53.5228, 53.5228, 153326.236346172, -157511.464500852, -157341.044533127, -157619.946104978, -157573.402864451, -49216.9367101701, 0, ]
  - [100, -47876.4054015202, 1906.43572964611, -45969.9696718741, 1264.5827529964, 53.5228, 53.5228, 53.5228, 153326.236346172, -22115.5922041483, -23320.9849570006, -21365.0002771187, -21660.7913783257, -47876.4054015202, 0, ]
  - [200, -47742.6921785444, 2145.22693046469, -45597.4652480797, 1422.97845940636, 53.5228, 53.5228, 53.5228, 153326.236346172, -8719.60723467802, -8359.04739320546, -9591.34263533202, -8208.43167549657, -47742.6921785444, 0, ]
  - [300, -47696.5483268918, 2223.56874552745, -45472.9795813644, 1474.94439071273, 53.5228, 53.5228, 53.5228, 153326.236346172, -3557.33322044552, -4790.4103891781, -3465.18373877224, -2416.40553338624, -47696.5483268918, 0, ]
  - [400, -47677.0225875288, 2236.77428679592, -45440.2483007329, 1483.70393055581, 53.5228, 53.5228, 53.5228, 153326.236346172, -2776.65732282937, -2623.51673891501, -2282.61112730811, -3423.844102265, -47677.0225875288, 0, ]
  - [500, -47665.6806597767, 2266.10014430979, -45399.5805154669, 1503.15644765469, 53.5228, 53.5228, 53.5228, 153326.236346172, -632.545755643521, -965.862355369444, -1051.92909998764, 120.154188426528, -47665.6806597767, 0, ]
  - [600, -47674.5034813174, 2257.445474885, -45417.0580064324, 1497.41560597969, 53.5228, 53.5228, 53.5228, 153326.236346172, -1043.82682558765, -568.68022489896, -1870.03375062647, -692.766501237517, -47674.5034813174, 0, ]
  - [700, -47661.5561995, 2215.44113950701, -45446.115059993, 1469.55316233993, 53.5228, 53.5228, 53.5228, 153326.236346172, -828.491790028103, -462.615289002075, -674.416324429386, -1348.44375665285, -47661.5561995, 0, ]
  - [800, -47671.9052834905, 2270.17390656363, -45401.7313769268, 1505.8586680369, 53.5228, 53.5228, 53.5228, 153326.236346172, -1778.59506646038, -2594.67316872095, -348.241605178361, -2392.87042548181, -47671.9052834905, 0, ]
  - [900, -47659.7289235429, 2264.86250097814, -45394.8664225648, 1502.33549031151, 53.5228, 53.5228, 53.5228, 153326.236346172, -491.400750548987, -1704.79987680423, -158.394557502507, 388.992182659784, -47659.7289235429, 0, ]
  - [1000, -47667.5831101616, 2274.84918649904, -45392.7339236625, 1508.95988895917, 53.5228, 53.5228, 53.5228, 153326.236346172, -1540.33987396297, -1232.32806155661, -1420.7186812594, -1967.97287907292, -47667.5831101616, 0, ]
  - [1100, -47664.4358108434, 2247.97337123092, -45416.4624396125, 1491.13254134275, 53.5228, 53.5228, 53.5228, 153326.236346172, -1398.34938426723, -1264.59469748145, -1289.56796027812, -1640.88549504212, -47664.4358108434, 0, ]
  - [1200, -47649.1020947934, 2254.32205029652, -45394.7800444969, 1495.3437664713, 53.5228, 53.5228, 53.5228, 153326.236346172, 137.00895671955, 147.426643510588, -900.406628588647, 1164.00685523672, -47649.1020947934, 0, ]
  - [1300, -47649.2069402728, 2254.36959527677, -45394.837344996, 1495.37530415237, 53.5228, 53.5228, 53.5228, 153326.236346172, 94.4108397623262, 180.250554587388, 476.164609827749, -373.182645128151, -47649.2069402728, 0, ]
  - [1400, -47633.9942134575, 2246.04095462338, -45387.9532588341, 1489.85072487471, 53.5228, 53.5228, 53.5228, 153326.236346172, 1557.85622345624, 2054.96754599708, 1257.30057525509, 1361.30054911655, -47633.9942134575, 0, ]
  - [1500, -47670.1680617786, 2258.8840367833, -45411.2840249953, 1498.36983723827, 53.5228, 53.5228, 53.5228, 153326.236346172, -1184.4552242774, -1714.43977633258, -951.931230383246, -886.994666116373, -47670.1680617786, 0, ]
  - [1600, -47661.1566930888, 2274.87401252757, -45386.2826805612, 1508.97635663601, 53.5228, 53.5228, 53.5228, 153326.236346172, -739.768383406864, -1100.83055695314, -1309.52149615978, 191.046902892334, -47661.1566930888, 0, ]
  - [1700, -47669.6429585922, 2259.23278499301, -45410.4101735992, 1498.60116996262, 53.5228, 53.5228, 53.5228, 153326.236346172, -1288.9024885081, -1300.13379357403, -769.158585723987, -1797.4150862263, -47669.6429585922, 0, ]
  - [1800, -47676.1722134505, 2247.0029644063, -45429.1692490442, 1490.48884813309, 53.5228, 53.5228, 53.5228, 153326.236346172, -1825.31899761091, -1825.37773083181, -1110.7083251941, -2539.8709368068, -47676.1722134505, 0, ]
  - [1900, -47669.875342557, 2267.88254636144, -45401.9927961955, 1504.33875601073, 53.5228, 53.5228, 53.5228, 153326.236346172, -1205.53330033922, -2301.89913690464, 269.806947520159, -1584.50771163318, -47669.875342557, 0, ]
  - [2000, -47677.7622458946, 2282.02320214735, -45395.7390437473, 1513.7185788628, 53.5228, 53.5228, 53.5228, 153326.236346172, -1992.20511298353, -2032.17194416103, -1358.98412955746, -2585.45926523211, -47677.7622458946, 0, ]
  - [2100, -47648.8785196262, 2273.84084418075, -45375.0376754454, 1508.29103226235, 53.5228, 53.5228, 53.5228, 153326.236346172, 215.007903751962, -743.614098740869, 368.968504071375, 1019.66930592538, -47648.8785196262, 0, ]
  - [2200, -47655.8059386933, 2263.56833270899, -45392.2376059843, 1501.47703867467, 53.5228, 53.5228, 53.5228, 153326.236346172, 215.365911935199, 381.199974500067, 591.907857750549, -327.01009644502, -47655.8059386933, 0, ]
  - [2300, -47679.2801811729, 2263.86478154711, -45415.4153996258, 1501.67368002061, 53.5228, 53.5228, 53.5228, 153326.236346172, -1458.08070147673, -2727.62910146394, -1573.2144483896, -73.3985545766599, -47679.2801811729, 0, ]
  - [2400, -47642.0730594264, 2220.08122112891, -45421.9918382975, 1472.63103540971, 53.5228, 53.5228, 53.5228, 153326.236346172, 854.734833078096, 1256.71242629904, 524.899999915017, 782.592073020218, -47642.0730594264, 0, ]
  - [2500, -47678.9352632908, 2273.4477859204, -45405.4874773704, 1508.0303076603, 53.5228, 53.5228, 53.5228, 153326.236346172, -1832.72274118805, -1806.18584855819, -1753.44716300373, -1938.53521200224, -47678.9352632908, 0, ]
  - [2600, -47677.4987342024, 2255.85827410378, -45421.6404600986, 1496.3627791247, 53.5228, 53.5228, 53.5228, 153326.236346172, -2531.42923611153, -1820.95910901209, -2584.37897928546, -3188.94962003704, -47677.4987342024, 0, ]
  - [2700, -47677.2339696793, 2263.17705276609, -45414.0569169132, 1501.21749367155, 53.5228, 53.5228, 53.5228, 153326.236346172, -3047.3469132571, -3012.73140300795, -2427.44370764139, -3701.86562912197, -47677.2339696793, 0, ]
  - [2800, -47662.7071927195, 2253.4252439778, -45409.2819487417, 1494.74889417333, 53.5228, 53.5228, 53.5228, 153326.236346172, -1513.97070831999, -1827.63678439302, -1184.3966837903, -1529.87865677664, -47662.7071927195, 0, ]
  - [2900, -47662.3631562185, 2274.30369610474, -45388.0594601137, 1508.59805260989, 53.5228, 53.5228, 53.5228, 153326.236346172, 275.874543532113, -22.7949017857233, 655.454054211341, 194.964478170732, -47662.3631562185, 0, ]
  - [3000, -47670.7140452486, 2275.5280260351, -45395.1860192135, 1509.41017886719, 53.5228, 53.5228, 53.5228, 153326.236346172, -1639.10438185329, -1459.96436924014, -2033.67184804269, -1423.67692827705, -47670.7140452486, 0, ]
  - [3100, -47658.0410874126, 2256.18487672279, -45401.8562106898, 1496.5794221684, 53.5228, 53.5228, 53.5228, 153326.236346172, -128.258055509005, -731.632190019332, -469.289108452103, 816.147131944416, -47658.0410874126, 0, ]
  - [3200, -47677.7194555755, 2240.43728839388, -45437.2821671816, 1486.13368392905, 53.5228, 53.5228, 53.5228, 153326.236346172, -1996.10623142878, -1813.36944769894, -1625.92367455604, -2549.02557203134, -47677.7194555755, 0, ]
  - [3300, -47654.9775444649, 2244.29741791951, -45410.6801265454, 1488.6941967995, 53.5228, 53.5228, 53.5228, 153326.236346172, -208.160761043445, -1078.82886416514, 1171.66648848633, -717.319907451531, -47654.9775444649, 0, ]
  - [3400, -47635.447946891, 2239.97391191745, -45395.4740349736, 1485.82631563379, 53.5228, 53.5228, 53.5228, 153326.236346172, 1658.36136807131, 1575.9146064163, 1454.80859419569, 1944.36090360195, -47635.447946891, 0, ]
  - [3500, -47678.3000169813, 2252.76379978645, -45425.5362171948, 1494.31014299833, 53.5228, 53.5228, 53.5228, 153326.236346172, -2152.25443155751, -2502.86453592017, -2470.01402997736, -1483.88472877499, -47678.3000169813, 0, ]
  - [3600, -47661.0992411545, 2252.42671652204, -45408.6725246324, 1494.08654790101, 53.5228, 53.5228, 53.5228, 153326.236346172, -333.441104683678, 19.5000871265319, -19.4671405016525, -1000.35626067592, -47661.0992411545, 0, ]
  - [3700, -47679.575903749, 2263.30617052068, -45416.2697332283, 1501.30314045367, 53.5228, 53.5228, 53.5228, 153326.236346172, -2639.96777647951, -1199.44622813829, -3628.55776904548, -3091.89933225478, -47679.575903749, 0, ]
  - [3800, -47672.7579120944, 2258.40089789096, -45414.3570142034, 1498.04936007711, 53.5228, 53.5228, 53.5228, 153326.236346172, -1662.11184463939, -1606.628499634, -912.937061547629, -2466.76997273652, -47672.7579120944, 0, ]
  - [3900, -47642.3485679899, 2269.13913758676, -45373.2094304032, 1505.17228192845, 53.5228, 53.5228, 53.5228, 153326.236346172, 1772.74556269489, 537.817358312321, 2269.3465525144, 2511.07277725795, -47642.3485679899, 0, ]
  - [4000, -47647.0841106873, 2271.23175173452, -45375.8523589528, 1506.56036111663, 53.5228, 53.5228, 53.5228, 153326.236346172, 797.016282521799, 1182.78193517116, 530.871152173092, 677.39576022114, -47647.0841106873, 0, ]
  - [4100, -47628.346459697, 2263.05290504354, -45365.2935546535, 1501.13514362622, 53.5228, 53.5228, 53.5228, 153326.236346172, 2781.59713111414, 2218.08544780234, 4062.75535289965, 2063.95059264043, -47628.346459697, 0, ]
  - [4200, -47623.9528864689, 2270.81885278756, -45353.1340336813, 1506.28647572992, 53.5228, 53.5228, 53.5228, 153326.236346172, 2927.01084591489, 3586.56390769356, 3018.26366583131, 2176.2049642198, -47623.9528864689, 0, ]
  - [4300, -47635.5320469713, 2288.52927041007, -45347.0027765612, 1518.03420387282, 53.5228, 53.5228, 53.5228, 153326.236346172, 2009.56202135995, 1777.62329142128, 2109.15524768365, 2141.90752497493, -47635.5320469713, 0, ]
  - [4400, -47651.9975557425, 2295.03609279752, -45356.9614629449, 1522.35032911115, 53.5228, 53.5228, 53.5228, 153326.236346172, 455.859043498364, 55.8299868973912, 471.696538236778, 840.050605360917, -47651.9975557425, 0, ]
  - [4500, -47663.2940621011, 2259.53126582165, -45403.7627962794, 1498.7991591747, 53.5228, 53.5228, 53.5228, 153326.236346172, -394.928267503832, -771.573166876278, -21.6650976004346, -391.546538034775, -47663.2940621011, 0, ]
  - [4600, -47672.4510876231, 2278.89966100403, -45393.5514266191, 1511.6466620409, 53.5228, 53.5228, 53.5228, 153326.236346172, -1374.67881235753, -1445.40633598729, -1500.38774991913, -1178.24235116616, -47672.4510876231, 0, ]
  - [4700, -47663.291031705, 2267.3715244569, -45395.9195072481, 1503.99978340503, 53.5228, 53.5228, 53.5228, 153326.236346172, -320.467494017663, -281.725722927763, 1164.48989214085, -1844.16665126608, -47663.291031705, 0, ]
  - [4800, -47635.9818164613, 2284.66641042247, -45351.3154060389, 1515.47187982402, 53.5228, 53.5228, 53.5228, 153326.236346172, 1621.47975251826, 909.666028500329, 1480.30311446795, 2474.47011458651, -47635.9818164613, 0, ]
  - [4900, -47669.4837379432, 2249.08428545742, -45420.3994524858, 1491.86943635003, 53.5228, 53.5228, 53.5228, 153326.236346172, -789.751560756879, 137.06148663804, -1169.34625239992, -1336.96991650876, -47669.4837379432, 0, ]
  - [5000, -47680.905069149, 2262.52973792778, -45418.3753312212, 1500.78811482203, 53.5228, 53.5228, 53.5228, 153326.236346172, -2480.06702211552, -1802.75080823898, -2695.46215751168, -2941.9881005959, -47680.905069149, 0, ]
  - [5100, -47667.9847936677, 2237.69936118267, -45430.285432485, 1484.31755371474, 53.5228, 53.5228, 53.5228, 153326.236346172, -1774.38687695983, -2335.79381246687, -790.284809119623, -2197.082009293, -47667.9847936677, 0, ]
  - [5200, -47670.0380805121, 2271.00435460652, -45399.0337259055, 1506.4095233613, 53.5228, 53.5228, 53.5228, 153326.236346172, -2017.8921078032, -1547.43403196652, -3020.51761300305, -1485.72467844003, -47670.0380805121, 0, ]
  - [5300, -47667.907724532, 2269.87833895759, -45398.0293855744, 1505.6626112325, 53.5228, 53.5228, 53.5228, 153326.236346172, -1425.31902823691, -1949.64370076731, -1259.71224052109, -1066.60114342234, -47667.907724532, 0, ]
  - [5400, -47688.4149445023, 2268.14553381527, -45420.2694106871, 1504.51320164937, 53.5228, 53.5228, 53.5228, 153326.236346172, -2619.16433229502, -1992.30643342562, -3047.15804959132, -2818.02851386812, -47688.4149445023, 0, ]
  - [5500, -47670.7471528744, 2242.43284156612, -45428.3143113083, 1487.45738033541, 53.5228, 53.5228, 53.5228, 153326.236346172, -1642.14836386684, -2395.24373517049, -1501.79797377874, -1029.40338265129, -47670.7471528744, 0, ]
  - [5600, -47674.3604363047, 2255.24137684972, -45419.1190594549, 1495.95357695978, 53.5228, 53.5228, 53.5228, 153326.236346172, -1508.62717978717, -744.910061003916, -1612.47114905394, -2168.50032930365, -47674.3604363047, 0, ]
  - [5700, -47678.082977402, 2244.21918073957, -45433.8637966624, 1488.64230027508, 53.5228, 53.5228, 53.5228, 153326.236346172, -1978.26102899477, -2599.30465658705, -1681.31103907974, -1654.16739131754, -47678.082977402, 0, ]
  - [5800, -47664.5192668918, 2247.44574446669, -45417.0735224251, 1490.78255435095, 53.5228, 53.5228, 53.5228, 153326.236346172, -956.673673712505, -1192.72013459507, -871.883708976616, -805.417177565815, -47664.5192668918, 0, ]
  - [5900, -47652.3530328141, 2231.91091094822, -45420.4421218658, 1480.47794128027, 53.5228, 53.5228, 53.5228, 153326.236346172, 323.6113335193, -232.221945672875, 1312.58586712265, -109.529920891865, -47652.3530328141, 0, ]
  - [6000, -47665.5426722432, 2211.646045886, -45453.8966263572, 1467.03578928376, 53.5228, 53.5228, 53.5228, 153326.236346172, -768.656320699075, -777.066179553717, -733.324200182733, -795.578582360768, -47665.5426722432, 0, ]
  - [6100, -47681.9021535395, 2282.39846206199, -45399.5036914775, 1513.96749741198, 53.5228, 53.5228, 53.5228, 153326.236346172, -2790.85461824347, -3000.70864457819, -2112.55596088945, -3259.29924926279, -47681.9021535395, 0, ]
  - [6200, -47673.1347640978, 2252.66739175329, -45420.4673723445, 1494.24619332822, 53.5228, 53.5228, 53.5228, 153326.236346172, -1594.0962762217, -1135.18318440077, -1475.30597366802, -2171.7996705963, -47673.1347640978, 0, ]
  - [6300, -47673.5083319265, 2237.27787880668, -45436.2304531198, 1484.03797474175, 53.5228, 53.5228, 53.5228, 153326.236346172, -1430.14389416265, -1856.72055567344, -770.910309653274, -1662.80081716123, -47673.5083319265, 0, ]
  - [6400, -47662.1601481454, 2283.74640783131, -45378.4137403141, 1514.86162090398, 53.5228, 53.5228, 53.5228, 153326.236346172, -648.812991290639, 69.7309168715333, -1065.87521452964, -950.29467621382, -47662.1601481454, 0, ]
  - [6500, -47676.5549425051, 2247.04698382089, -45429.5079586842, 1490.51804722521, 53.5228, 53.5228, 53.5228, 153326.236346172, -2286.53944494621, -2834.69373052093, -782.792936134107, -3242.1316681836, -47676.5549425051, 0, ]
  - [6600, -47644.8966275302, 2253.7300317024, -45391.1665958278, 1494.95106689484, 53.5228, 53.5228, 53.5228, 153326.236346172, 660.960734880968, 3.61553476573898, 604.832680287133, 1374.43398959004, -47644.8966275302, 0, ]
  - [6700, -47653.4165729039, 2242.77244197594, -45410.644130928, 1487.68264511329, 53.5228, 53.5228, 53.5228, 153326.236346172, 196.003476279384, 873.121055231499, -463.370408501712, 178.259782108358, -47653.4165729039, 0, ]
  - [6800, -47648.8252869619, 2238.15773926545, -45410.6675476965, 1484.6216064603, 53.5228, 53.5228, 53.5228, 153326.236346172, 106.260357761351, 872.604001972177, -1113.45815695157, 559.635228263454, -47648.8252869619, 0, ]
  - [6900, -47669.8573732797, 2231.98241042916, -45437.8749628506, 1480.52536853367, 53.5228, 53.5228, 53.5228, 153326.236346172, -1349.43543945906, -1988.09010049218, -1539.35635524542, -520.859862639577, -47669.8573732797, 0, ]
  - [7000, -47679.9538847072, 2284.55568822641, -45395.3981964808, 1515.39843523979, 53.5228, 53.5228, 53.5228, 153326.236346172, -2481.89286609077, -1703.84608560243, -2222.03050021898, -3519.8020124509, -47679.9538847072, 0, ]
  - [7100, -47664.4470221283, 2261.24748911512, -45403.1995330131, 1499.93756963537, 53.5228, 53.5228, 53.5228, 153326.236346172, -680.267394835797, -299.875354450199, 383.445305080749, -2124.37213513794, -47664.4470221283, 0, ]
  - [7200, -47661.1439510684, 2257.5223412249, -45403.6216098435, 1497.46659319431, 53.5228, 53.5228, 53.5228, 153326.236346172, -1086.23939298691, -1533.38972571893, -1056.70506716351, -668.623386078312, -47661.1439510684, 0, ]
  - [7300, -47654.0081416738, 2269.09567819801, -45384.9124634758, 1505.14345431437, 53.5228, 53.5228, 53.5228, 153326.236346172, 475.470448589158, 1148.74351364471, -26.8685877371648, 304.536419859935, -47654.0081416738, 0, ]
  - [7400, -47659.4875611229, 2259.386029271, -45400.1015318519, 1498.7028204237, 53.5228, 53.5228, 53.5228, 153326.236346172, -133.218655898074, -152.5467136185, -476.674143347874, 229.564889272149, -47659.4875611229, 0, ]
  - [7500, -47661.1584590646, 2275.56459264599, -45385.5938664186, 1509.43443434287, 53.5228, 53.5228, 53.5228, 153326.236346172, -466.760701921054, -533.778687703192, -758.212452008678, -108.290966051302, -47661.1584590646, 0, ]
  - [7600, -47648.0016628821, 2267.2371355559, -45380.7645273262, 1503.91064015003, 53.5228, 53.5228, 53.5228, 153326.236346172, -23.5004706527102, 742.382606919046, -302.809572146634, -510.074446730548, -47648.0016628821, 0, ]
  - [7700, -47642.1678201665, 2251.40136790263, -45390.7664522639, 1493.40641053275, 53.5228, 53.5228, 53.5228, 153326.236346172, 366.615535271769, 1082.92422456744, -793.722017804217, 810.644399052077, -47642.1678201665, 0, ]
  - [7800, -47647.9166505932, 2251.29617833576, -45396.6204722574, 1493.33663586897, 53.5228, 53.5228, 53.5228, 153326.236346172, 124.16021211733, 992.028053845258, 340.160733072882, -959.708150566146, -47647.9166505932, 0, ]
  - [7900, -47656.8122920187, 2282.04195803115, -45374.7703339875, 1513.73102007275, 53.5228, 53.5228, 53.5228, 153326.236346172, -861.624830262174, -482.71940513433, -1164.63673585235, -937.518349799846, -47656.8122920187, 0, ]
  - [8000, -47642.7406048665, 2231.79621770871, -45410.9443871578, 1480.40186261141, 53.5228, 53.5228, 53.5228, 153326.236346172, 732.460376014461, 1048.65796517928, 499.89844771794, 648.824715146167, -47642.7406048665, 0, ]
  - [8100, -47644.7213166866, 2278.55628032561, -45366.165036361, 1511.41888972375, 53.5228, 53.5228, 53.5228, 153326.236346172, 1341.38681911886, 1714.83054493778, 1652.61222599989, 656.717686418908, -47644.7213166866, 0, ]
  - [8200, -47642.6062227282, 2219.38238138431, -45423.2238413439, 1472.16747890246, 53.5228, 53.5228, 53.5228, 153326.236346172, 764.146088214238, -120.103179357052, 1851.68689188609, 560.854552113672, -47642.6062227282, 0, ]
  - [8300, -47651.316511208, 2270.09639160406, -45381.220119604, 1505.80725057789, 53.5228, 53.5228, 53.5228, 153326.236346172, 577.869930783245, 881.140917956097, 1167.57560273915, -315.106728345501, -47651.316511208, 0, ]
  - [8400, -47667.6933429286, 2232.55950782573, -45435.1338351029, 1480.90817053593, 53.5228, 53.5228, 53.5228, 153326.236346172, -2075.77963481508, -2658.99177914478, -2118.36156525891, -1449.98556004153, -47667.6933429286, 0, ]
  - [8500, -47650.2538896386, 2245.99099541532, -45404.2628942233, 1489.81758578071, 53.5228, 53.5228, 53.5228, 153326.236346172, -266.689404221975, -594.603802235724, -1265.09898917844, 1059.63457874824, -47650.2538896386, 0, ]
  - [8600, -47653.8400410171, 2251.08645692954, -45402.7535840875, 1493.19752282722, 53.5228, 53.5228, 53.5228, 153326.236346172, -205.310672243995, 464.654592331758, 310.479649474166, -1391.0662585379, -47653.8400410171, 0, ]
  - [8700, -47672.9501549274, 2284.18861910403, -45388.7615358234, 1515.15494983187, 53.5228, 53.5228, 53.5228, 153326.236346172, -1541.28744479316, -1837.66277647264, -2073.46089374467, -712.738664162167, -47672.9501549274, 0, ]
  - [8800, -47647.9871539155, 2262.49893137508, -45385.4882225404, 1500.76768012569, 53.5228, 53.5228, 53.5228, 153326.236346172, 954.169338205361, 1530.81177704905, 117.11917676722, 1214.57706079981, -47647.9871539155, 0, ]
  - [8900, -47655.6118452338, 2241.18181109221, -45414.4300341416, 1486.62754299226, 53.5228, 53.5228, 53.5228, 153326.236346172, -322.020797708947, -157.449365500262, -100.692590590298, -707.92043703627, -47655.6118452338, 0, ]
  - [9000, -47641.576007371, 2302.80536224672, -45338.7706451243, 1527.50386457843, 53.5228, 53.5228, 53.5228, 153326.236346172, 1907.85147914478, 1588.63700940398, 2446.88764901316, 1688.0297790172, -47641.576007371, 0, ]
  - [9100, -47649.1965334917, 2279.7410031521, -45369.4555303396, 1512.20474367632, 53.5228, 53.5228, 53.5228, 153326.236346172, 875.612792453267, -65.5133961033897, 924.192534509235, 1768.15923895396, -47649.1965334917, 0, ]
  - [9200, -47646.540020808, 2268.96906597965, -45377.5709548283, 1505.05946951217, 53.5228, 53.5228, 53.5228, 153326.236346172, 281.669508940012, 519.402601783147, -173.11120723628, 498.717132273175, -47646.540020808, 0, ]
  - [9300, -47683.0627372976, 2268.58565989014, -45414.4770774075, 1504.80514741747, 53.5228, 53.5228, 53.5228, 153326.236346172, -3153.53245767091, -3097.25658142896, -3727.9720798686, -2635.36871171518, -47683.0627372976, 0, ]
  - [9400, -47672.2248444096, 2240.75932916321, -45431.4655152464, 1486.34730099273, 53.5228, 53.5228, 53.5228, 153326.236346172, -1510.69084015487, -2503.51089543911, -548.119480992912, -1480.44214403258, -47672.2248444096, 0, ]
  - [9500, -47680.6524872116, 2290.52427555964, -45390.128211652, 1519.35753676312, 53.5228, 53.5228, 53.5228, 153326.236346172, -1477.922804474, -3222.20070326835, -941.742175504739, -269.825534648918, -47680.6524872116, 0, ]
  - [9600, -47671.9174497653, 2264.15520314629, -45407.762246619, 1501.86632336007, 53.5228, 53.5228, 53.5228, 153326.236346172, -1130.47337367029, 41.9103008832385, -3019.4864296925, -413.843992201614, -47671.9174497653, 0, ]
  - [9700, -47667.8675805968, 2273.56565386068, -45394.3019267361, 1508.10849218133, 53.5228, 53.5228, 53.5228, 153326.236346172, -550.732983323672, -388.17179166928, -1342.82891877592, 78.801760474179, -47667.8675805968, 0, ]
  - [9800, -47629.6654265892, 2265.83773411818, -45363.827692471, 1502.98238492739, 53.5228, 53.5228, 53.5228, 153326.236346172, 3014.39259968874, 1972.63291930025, 3348.8707460323, 3721.67413373365, -47629.6654265892, 0, ]
  - [9900, -47659.7323921374, 2270.59272402913, -45389.1396681083, 1506.13647931335, 53.5228, 53.5228, 53.5228, 153326.236346172, -1062.37000003669, -1749.42424583732, -1021.04445931188, -416.641294960861, -47659.7323921374, 0, ]
  - [10000, -47674.3177979403, 2269.22961136123, -45405.0881865791, 1505.232295268, 53.5228, 53.5228, 53.5228, 153326.236346172, -1622.60705256543, -1762.0443205459, -2137.11712048328, -968.659716667092, -47674.3177979403, 0, ]
  - [10100, -47645.8215213739, 2245.13312137667, -45400.6883999973, 1489.24853816129, 53.5228, 53.5228, 53.5228, 153326.236346172, 754.338484487226, 720.508167651482, -14.5087461080491, 1557.01603191825, -47645.8215213739, 0, ]
  - [10200, -47628.5106757607, 2250.65815825639, -45377.8525175043, 1492.91342244725, 53.5228, 53.5228, 53.5228, 153326.236346172, 1541.26031483698, 1604.93760938369, 1691.29785813477, 1327.54547699248, -47628.5106757607, 0, ]
  - [10300, -47636.7708775196, 2293.66088036713, -45343.1099971525, 1521.43811901451, 53.5228, 53.5228, 53.5228, 153326.236346172, 2472.29972153102, 1854.84748204595, 3739.23268236204, 1822.81900018507, -47636.7708775196, 0, ]
  - [10400, -47652.7286280504, 2276.08499608562, -45376.6436319648, 1509.77962993699, 53.5228, 53.5228, 53.5228, 153326.236346172, 677.931146451464, 600.803244692235, 1216.85384651567, 216.13634814648, -47652.7286280504, 0, ]
  - [10500, -47668.5440505409, 2260.78855457538, -45407.7554959655, 1499.63314777908, 53.5228, 53.5228, 53.5228, 153326.236346172, -2019.78446829189, -2046.41176110314, -2182.47919066409, -1830.46245310843, -47668.5440505409, 0, ]
  - [10600, -47676.8568777221, 2272.55378643966, -45404.3030912824, 1507.43729720264, 53.5228, 53.5228, 53.5228, 153326.236346172, -2114.76883212918, -2905.66685736787, -2590.48957144262, -848.150067577053, -47676.8568777221, 0, ]
  - [10700, -47672.9317438981, 2245.7152550246, -45427.2164888735, 1489.63468082515, 53.5228, 53.5228, 53.5228, 153326.236346172, -1546.92107978477, -957.230828606157, -1427.54028704037, -2255.99212370777, -47672.9317438981, 0, ]
  - [10800, -47660.53778949, 2266.8189787694, -45393.7188107206, 1503.63326711718, 53.5228, 53.5228, 53.5228, 153326.236346172, 347.411388912337, 727.069074025393, 608.243566591652, -293.078473880036, -47660.53778949, 0, ]
  - [10900, -47664.6605811699, 2295.69430578351, -45368.9662753864, 1522.78693695317, 53.5228, 53.5228, 53.5228, 153326.236346172, -566.81882795224, -937.676835586743, -244.70325373216, -518.076394537811, -47664.6605811699, 0, ]
  - [11000, -47644.8710867886, 2278.05636483617, -45366.8147219524, 1511.08728425913, 53.5228, 53.5228, 53.5228, 153326.236346172, 1004.87830119673, 878.452631630705, -304.517770482027, 2440.70004244153, -47644.8710867886, 0, ]
  - [11100, -47648.2130636149, 2250.29697750741, -45397.9160861075, 1492.67384293309, 53.5228, 53.5228, 53.5228, 153326.236346172, 745.093255138564, 1045.75227216428, 2019.38103212116, -829.853538869741, -47648.2130636149, 0, ]
  - [11200, -47654.7722705866, 2283.92071324206, -45370.8515573445, 1514.97724169977, 53.5228, 53.5228, 53.5228, 153326.236346172, -510.334989538444, -664.918303635766, 94.5868659128422, -960.673530892408, -47654.7722705866, 0, ]
  - [11300, -47634.9593958985, 2283.80274191258, -45351.1566539859, 1514.8989885983, 53.5228, 53.5228, 53.5228, 153326.236346172, 1555.10823988084, 1345.03350855519, 769.50432166345, 2550.78688942389, -47634.9593958985, 0, ]
  - [11400, -47676.9429762997, 2243.63109155148, -45433.3118847483, 1488.25220716419, 53.5228, 53.5228, 53.5228, 153326.236346172, -2231.48429452902, -1232.15380918277, -3104.96020977081, -2357.33886463347, -47676.9429762997, 0, ]
  - [11500, -47654.6965721615, 2203.0911547366, -45451.6054174249, 1461.36113283819, 53.5228, 53.5228, 53.5228, 153326.236346172, -367.857705323755, -1151.39459321819, -815.410408234254, 863.231885481177, -47654.6965721615, 0, ]
  - [11600, -47675.620727567, 2241.72045235923, -45433.9002752077, 1486.98483615759, 53.5228, 53.5228, 53.5228, 153326.236346172, -2287.19060689947, -2480.38662523923, -1932.60296918028, -2448.58222627891, -47675.620727567, 0, ]
  - [11700, -47659.4897197217, 2281.3534379193, -45378.1362818024, 1513.27430881572, 53.5228, 53.5228, 53.5228, 153326.236346172, -490.58192060061, -766.296964658568, -9.49399999547488, -695.954797147778, -47659.4897197217, 0, ]
  - [11800, -47646.9552278158, 2269.09932798725, -45377.8558998286, 1505.14587530368, 53.5228, 53.5228, 53.5228, 153326.236346172, 1436.37181413021, 1497.81524631264, 1680.63163565401, 1130.668560424, -47646.9552278158, 0, ]
  - [11900, -47655.9824742174, 2281.65215451919, -45374.3303196982, 1513.47245442031, 53.5228, 53.5228, 53.5228, 153326.236346172, -6.05207458279066, -759.72841064957, 871.10775300176, -129.53556610055, -47655.9824742174, 0, ]
  - [12000, -47636.7326093186, 2239.74299911931, -45396.9896101993, 1485.67314585343, 53.5228, 53.5228, 53.5228, 153326.236346172, 1191.72613990959, 305.628656400754, 2181.79037775828, 1087.75938556973, -47636.7326093186, 0, ]
  - [12100, -47667.9165086275, 2284.19421059698, -45383.7222980305, 1515.158658798, 53.5228, 53.5228, 53.5228, 153326.236346172, -1094.00727291284, -1370.09543294462, -911.824457685809, -1000.10192810811, -47667.9165086275, 0, ]
  - [12200, -47640.694478331, 2258.72047431004, -45381.974004021, 1498.26134248048, 53.5228, 53.5228, 53.5228, 153326.236346172, 1298.90397839826, 1894.11770657946, 2155.68020218636, -153.08597357104, -47640.694478331, 0, ]
  - [12300, -47662.5526920144, 2251.64268897066, -45410.9100030438, 1493.56648435838, 53.5228, 53.5228, 53.5228, 153326.236346172, -373.661572797758, -1091.00410458526, -327.053074294828, 297.07246048681, -47662.5526920144, 0, ]
  - [12400, -47662.4862158001, 2282.94851997468, -45379.5376958254, 1514.33236350147, 53.5228, 53.5228, 53.5228, 153326.236346172, -628.03224117418, -1115.57471269076, -732.50974808371, -36.0122627480784, -47662.4862158001, 0, ]
  - [12500, -47646.3053815816, 2273.68269450676, -45372.6226870748, 1508.18612793906, 53.5228, 53.5228, 53.5228, 153326.236346172, 720.235111418276, 1289.08472042092, 645.925915496562, 225.694698337345, -47646.3053815816, 0, ]
  - [12600, -47643.7047733135, 2265.35852219319, -45378.3462511203, 1502.66451261418, 53.5228, 53.5228, 53.5228, 153326.236346172, 887.067555161783, 1365.36034457453, 856.117347912532, 439.724972998281, -47643.7047733135, 0, ]
  - [12700, -47659.9134179172, 2262.87475989364, -45397.0386580235, 1501.01697584297, 53.5228, 53.5228, 53.5228, 153326.236346172, -870.118884967375, -1132.74645530883, -1482.92571634224, 5.31551674895851, -47659.9134179172, 0, ]
  - [12800, -47697.3654520219, 2276.43806244539, -45420.9273895765, 1510.01382698979, 53.5228, 53.5228, 53.5228, 153326.236346172, -3821.5469789904, -4265.16533785528, -4031.98018109107, -3167.49541802484, -47697.3654520219, 0, ]
  - [12900, -47673.2088652066, 2255.13075653281, -45418.0781086737, 1495.88019995434, 53.5228, 53.5228, 53.5228, 153326.236346172, -1183.94814665576, -1591.81760328681, -1583.10714217621, -376.919694504265, -47673.2088652066, 0, ]
  - [13000, -47663.4368692305, 2249.45797023245, -45413.978898998, 1492.11731007282, 53.5228, 53.5228, 53.5228, 153326.236346172, -989.339161679399, -1572.37667354636, -656.299561804121, -739.34124968772, -47663.4368692305, 0, ]
  - [13100, -47684.2994114367, 2248.4797238791, -45435.8196875576, 1491.4684167231, 53.5228, 53.5228, 53.5228, 153326.236346172, -3181.59754402528, -2968.71447280204, -4077.47853508811, -2498.59962418569, -47684.2994114367, 0, ]
  - [13200, -47678.6419347451, 2244.25840488475, -45434.3835298604, 1488.6683185545, 53.5228, 53.5228, 53.5228, 153326.236346172, -2304.65955908239, -2522.64925744524, -2126.07637310583, -2265.2530466961, -47678.6419347451, 0, ]
  - [13300, -47681.5409743294, 2254.75305434493, -45426.7879199845, 1495.62966138904, 53.5228, 53.5228, 53.5228, 153326.236346172, -2338.6197115868, -1593.80233004609, -3174.34046922548, -2247.71633548881, -47681.5409743294, 0, ]
  - [13400, -47646.08499699, 2269.10223493876, -45376.9827620512, 1505.14780355161, 53.5228, 53.5228, 53.5228, 153326.236346172, 693.299602522384, 78.7815169999073, 957.456763688485, 1043.66052687876, -47646.08499699, 0, ]
  - [13500, -47653.994624232, 2237.30423071896, -45416.6903935131, 1484.05545457243, 53.5228, 53.5228, 53.5228, 153326.236346172, -653.068674701424, -1033.80353899771, -637.829904719544, -287.572580387022, -47653.994624232, 0, ]
  - [13600, -47661.8054079739, 2293.51961640998, -45368.2857915639, 1521.34441537633, 53.5228, 53.5228, 53.5228, 153326.236346172, -136.175528402976, -422.318412703538, 355.123889129678, -341.332061635062, -47661.8054079739, 0, ]
  - [13700, -47650.0657174332, 2260.66521043262, -45389.4005070006, 1499.55133076674, 53.5228, 53.5228, 53.5228, 153326.236346172, 319.188647874488, -39.6116962735066, -316.486626294065, 1313.66426619104, -47650.0657174332, 0, ]
  - [13800, -47647.3459167611, 2250.03643662906, -45397.309480132, 1492.50102016435, 53.5228, 53.5228, 53.5228, 153326.236346172, 869.294087045984, 763.648498883234, 1468.77727996061, 375.456482294113, -47647.3459167611, 0, ]
  - [13900, -47678.7233474771, 2257.85503154854, -45420.8683159286, 1497.68727435278, 53.5228, 53.5228, 53.5228, 153326.236346172, -2837.83532590626, -3236.79189801168, -3103.59923550333, -2173.11484420376, -47678.7233474771, 0, ]
  - [14000, -47671.0246145757, 2257.52921282156, -45413.4954017541, 1497.47115128273, 53.5228, 53.5228, 53.5228, 153326.236346172, -1012.28727096613, -1012.83673438626, -1085.60411201285, -938.42096649927, -47671.0246145757, 0, ]
  - [14100, -47643.0807697035, 2246.60714956121, -45396.4736201423, 1490.22629502485, 53.5228, 53.5228, 53.5228, 153326.236346172, 1030.76158555635, 1446.50605673395, 317.430571620811, 1328.3481283143, -47643.0807697035, 0, ]
  - [14200, -47669.7606968805, 2256.30503430351, -45413.455662577, 1496.6591254607, 53.5228, 53.5228, 53.5228, 153326.236346172, -1831.44402236684, -513.414522410166, -2638.29074218954, -2342.62680250081, -47669.7606968805, 0, ]
  - [14300, -47640.0824515228, 2263.58399595872, -45376.498455564, 1501.48742846917, 53.5228, 53.5228, 53.5228, 153326.236346172, 1852.47353763993, 2586.68495332095, 2107.48816302327, 863.247496575578, -47640.0824515228, 0, ]
  - [14400, -47665.3266371072, 2294.13979659119, -45371.186840516, 1521.75579518248, 53.5228, 53.5228, 53.5228, 153326.236346172, -634.630180790337, -236.633462847848, -1792.61645023527, 125.359370712103, -47665.3266371072, 0, ]
  - [14500, -47645.459409949, 2270.08749177845, -45375.3719181706, 1505.80134711848, 53.5228, 53.5228, 53.5228, 153326.236346172, 732.604055047947, 123.314354436404, 257.495479562107, 1817.00233114532, -47645.459409949, 0, ]
  - [14600, -47656.912901106, 2257.0736111153, -45399.8392899907, 1497.1689401717, 53.5228, 53.5228, 53.5228, 153326.236346172, 407.905545865596, -331.356616507023, 1042.46894521205, 512.60430889176, -47656.912901106, 0, ]
  - [14700, -47655.2310886596, 2242.08574856356, -45413.1453400961, 1487.22714554811, 53.5228, 53.5228, 53.5228, 153326.236346172, -470.46657602525, -89.3568224079221, -910.034763218641, -412.008142449191, -47655.2310886596, 0, ]
  - [14800, -47671.1639360499, 2266.31699956387, -45404.8469364861, 1503.30029274212, 53.5228, 53.5228, 53.5228, 153326.236346172, -1207.99974381895, -1467.91955841455, -2308.38833103304, 152.308657990745, -47671.1639360499, 0, ]
  - [14900, -47641.1694882605, 2254.95122938652, -45386.218258874, 1495.76111546104, 53.5228, 53.5228, 53.5228, 153326.236346172, 1182.96861983878, 1261.95498926062, 130.397522060022, 2156.5533481957, -47641.1694882605, 0, ]
  - [15000, -47675.0410469391, 2274.54755522914, -45400.49349171, 1508.7598099868, 53.5228, 53.5228, 53.5228, 153326.236346172, -1517.73978838476, -1269.08681145199, -1347.64473831357, -1936.48781538873, -47675.0410469391, 0, ]
  - [15100, -47650.3889055625, 2263.95484195937, -45386.4340636032, 1501.73341916749, 53.5228, 53.5228, 53.5228, 153326.236346172, -260.76892832659, 361.744906472259, -548.464471420634, -595.587220031407, -47650.3889055625, 0, ]
  - [15200, -47626.8150635552, 2261.54146740302, -45365.2735961522, 1500.13257220842, 53.5228, 53.5228, 53.5228, 153326.236346172, 2479.93442197283, 3507.33536384387, 2273.02834081206, 1659.43956126255, -47626.8150635552, 0, ]
  - [15300, -47655.3908153218, 2302.83299505889, -45352.5578202629, 1527.52219405954, 53.5228, 53.5228, 53.5228, 153326.236346172, 584.680661745137, -192.119347801512, 1014.0414509092, 932.119882127711, -47655.3908153218, 0, ]
  - [15400, -47662.8672576664, 2264.87244781912, -45397.9948098473, 1502.34208828035, 53.5228, 53.5228, 53.5228, 153326.236346172, -161.799654164027, -573.012122856131, -592.584469207197, 680.197629571257, -47662.8672576664, 0, ]
  - [15500, -47645.0826591534, 2258.04197595739, -45387.040683196, 1497.81127888728, 53.5228, 53.5228, 53.5228, 153326.236346172, 162.050897258295, 896.192329638776, -284.205694782658, -125.83394308123, -47645.0826591534, 0, ]
  - [15600, -47634.4906605374, 2263.02301799892, -45371.4676425385, 1501.11531886078, 53.5228, 53.5228, 53.5228, 153326.236346172, 1079.55110258078, 1055.27440116305, 842.694340856759, 1340.68456572253, -47634.4906605374, 0, ]
  - [15700, -47622.3137817616, 2281.58289639978, -45340.7308853619, 1513.42651391366, 53.5228, 53.5228, 53.5228, 153326.236346172, 2979.64478602452, 2522.64105637221, 3226.25813870438, 3190.03516299696, -47622.3137817616, 0, ]
  - [15800, -47632.3455207597, 2266.13224287701, -45366.2132778827, 1503.17773937403, 53.5228, 53.5228, 53.5228, 153326.236346172, 2144.06176111745, 1695.31664431928, 2393.67397706766, 2343.19466196541, -47632.3455207597, 0, ]
  - [15900, -47651.5976206436, 2280.6364396229, -45370.9611810207, 1512.7987073226, 53.5228, 53.5228, 53.5228, 153326.236346172, 535.730418456307, 886.118492199819, 955.01556785732, -233.942804688214, -47651.5976206436, 0, ]
  - [16000, -47653.9882702788, 2223.70653217003, -45430.2817381088, 1475.03578776803, 53.5228, 53.5228, 53.5228, 153326.236346172, -322.620691123566, -1174.13516155661, 714.823600608721, -508.550512422805, -47653.9882702788, 0, ]
  - [16100, -47652.6599742819, 2262.53455456347, -45390.1254197184, 1500.79130980749, 53.5228, 53.5228, 53.5228, 153326.236346172, 0.654757287231197, 106.683860370781, 28.3536540240476, -133.073242533147, -47652.6599742819, 0, ]
  - [16200, -47660.1809706212, 2234.25063488489, -45425.9303357363, 1482.02993408604, 53.5228, 53.5228, 53.5228, 153326.236346172, -1184.94747073733, -1513.48207706838, -484.511436983826, -1556.84889815978, -47660.1809706212, 0, ]
  - [16300, -47673.3791261111, 2266.26816228282, -45407.1109638283, 1503.26789784815, 53.5228, 53.5228, 53.5228, 153326.236346172, -2216.49610171031, -1536.05635036404, -3815.196750459, -1298.23520430791, -47673.3791261111, 0, ]
  - [16400, -47670.5742741129, 2256.65833623056, -45413.9159378823, 1496.8934787707, 53.5228, 53.5228, 53.5228, 153326.236346172, -1388.01853685538, -198.503049729933, -2577.2134938035, -1388.33906703269, -47670.5742741129, 0, ]
  - [16500, -47642.4233366307, 2259.27759695234, -45383.1457396784, 1498.63089476793, 53.5228, 53.5228, 53.5228, 153326.236346172, 945.00543453367, -403.121744510206, 1659.90716528502, 1578.23088282619, -47642.4233366307, 0, ]
  - [16600, -47654.2552995342, 2276.66938597551, -45377.5859135587, 1510.16726921814, 53.5228, 53.5228, 53.5228, 153326.236346172, 541.105518927274, 730.646816581202, 1477.45294672023, -584.783206519605, -47654.2552995342, 0, ]
  - [16700, -47666.7323491857, 2266.42293316253, -45400.3094160232, 1503.37056093934, 53.5228, 53.5228, 53.5228, 153326.236346172, -910.036893855911, -178.289358744197, -1226.60072268634, -1325.2206001372, -47666.7323491857, 0, ]
  - [16800, -47666.7492702735, 2250.1082519467, -45416.6410183268, 1492.54865691952, 53.5228, 53.5228, 53.5228, 153326.236346172, -963.518205477998, -1020.46459493285, -829.98498099293, -1040.10504050821, -47666.7492702735, 0, ]
  - [16900, -47647.6446826867, 2234.2818965478, -45413.3627861389, 1482.05067066748, 53.5228, 53.5228, 53.5228, 153326.236346172, 522.411163521603, -222.524676442111, 1148.44358166789, 641.314585339024, -47647.6446826867, 0, ]
  - [17000, -47667.5140790181, 2256.64970875529, -45410.8643702628, 1496.88775596754, 53.5228, 53.5228, 53.5228, 153326.236346172, -1596.6556102356, -2901.39239555031, -1539.12813844181, -349.446296714699, -47667.5140790181, 0, ]
  - [17100, -47638.3198221842, 2259.03149594854, -45379.2883262356, 1498.46765030074, 53.5228, 53.5228, 53.5228, 153326.236346172, 1527.14422046144, 1612.91223198423, 1886.96373387974, 1081.55669552034, -47638.3198221842, 0, ]
  - [17200, -47670.8521320285, 2264.57245805385, -45406.2796739747, 1502.14309815583, 53.5228, 53.5228, 53.5228, 153326.236346172, -1785.75492268465, -1876.05128388241, -1682.96573871183, -1798.24774545973, -47670.8521320285, 0, ]
  - [17300, -47642.3118296223, 2267.64929670661, -45374.6625329157, 1504.18403613948, 53.5228, 53.5228, 53.5228, 153326.236346172, 863.142130289744, 320.017628855568, 1006.70142292989, 1262.70733908378, -47642.3118296223, 0, ]
  - [17400, -47661.4844389372, 2246.41357025773, -45415.0708686795, 1490.09788941185, 53.5228, 53.5228, 53.5228, 153326.236346172, -972.768524212743, -1655.48726188842, 343.811860012993, -1606.6301707628, -47661.4844389372, 0, ]
  - [17500, -47649.9776454148, 2256.32705974717, -45393.6505856676, 1496.67373544506, 53.5228, 53.5228, 53.5228, 153326.236346172, 280.45325205667, -738.973936947245, 1309.40888993275, 270.924803184503, -47649.9776454148, 0, ]
  - [17600, -47673.0161133177, 2266.40609396068, -45406.610019357, 1503.35939110869, 53.5228, 53.5228, 53.5228, 153326.236346172, -2133.16111209446, -2423.91240584731, -2668.59926323234, -1306.97166720374, -47673.0161133177, 0, ]
  - [17700, -47658.7947810536, 2258.68481391205, -45400.1099671415, 1498.23768811671, 53.5228, 53.5228, 53.5228, 153326.236346172, -132.574267702932, 392.91503699241, 46.8047408195226, -837.442580920736, -47658.7947810536, 0, ]
  - [17800, -47657.505309778, 2259.008354826, -45398.496954952, 1498.45230026088, 53.5228, 53.5228, 53.5228, 153326.236346172, 271.175939146762, 929.969173905973, -27.6709940764595, -88.7703623892258, -47657.505309778, 0, ]
  - [17900, -47651.8005991411, 2230.290376571, -45421.5102225701, 1479.40300348289, 53.5228, 53.5228, 53.5228, 153326.236346172, 574.520794854447, 39.1346029383828, -224.878486123141, 1909.3062677481, -47651.8005991411, 0, ]
  - [18000, -47654.3452764309, 2255.93502923964, -45398.4102471913, 1496.41369257513, 53.5228, 53.5228, 53.5228, 153326.236346172, -17.8253956961737, -327.237898499462, -1095.45427587474, 1369.21598728568, -47654.3452764309, 0, ]
  - [18100, -47662.8393604462, 2266.64623132026, -45396.1931291259, 1503.51867975323, 53.5228, 53.5228, 53.5228, 153326.236346172, -293.619271251088, -463.50771688068, 13.0223755776826, -430.372472450265, -47662.8393604462, 0, ]
  - [18200, -47655.9218138269, 2247.66132864893, -45408.260485178, 1490.92555630713, 53.5228, 53.5228, 53.5228, 153326.236346172, -188.764337270767, 50.0291730851195, -963.356304266939, 347.034119369516, -47655.9218138269, 0, ]
  - [18300, -47669.3184288772, 2262.49511977819, -45406.823309099, 1500.76515180564, 53.5228, 53.5228, 53.5228, 153326.236346172, -1040.2783687312, -1831.08650802383, -1126.05514637231, -163.693451797475, -47669.3184288772, 0, ]
  - [18400, -47660.7603838281, 2243.0768461336, -45417.6835376945, 1487.88456340601, 53.5228, 53.5228, 53.5228, 153326.236346172, -346.544896541998, 894.018578916938, -568.97545015898, -1364.67781838395, -47660.7603838281, 0, ]
  - [18500, -47660.0929890139, 2242.20583507752, -45417.8871539364, 1487.3068017002, 53.5228, 53.5228, 53.5228, 153326.236346172, -676.585452375787, -799.596603102841, -1333.83980084, 103.680046815484, -47660.0929890139, 0, ]
  - [18600, -47664.7560650797, 2236.50130797562, -45428.2547571041, 1483.52285741355, 53.5228, 53.5228, 53.5228, 153326.236346172, -1399.21014732159, -903.962913703875, -2001.09831090978, -1292.56921735109, -47664.7560650797, 0, ]
  - [18700, -47655.1258328373, 2252.97978305641, -45402.1460497809, 1494.45340967859, 53.5228, 53.5228, 53.5228, 153326.236346172, 558.922585287411, -396.633846257914, 728.115186670777, 1345.28641544937, -47655.1258328373, 0, ]
  - [18800, -47661.3471389568, 2251.00363403194, -45410.3435049249, 1493.14258449061, 53.5228, 53.5228, 53.5228, 153326.236346172, -747.098879818642, -927.969546343586, -1109.81645728763, -203.510635824715, -47661.3471389568, 0, ]
  - [18900, -47652.8963438642, 2227.29269456452, -45425.6036492996, 1477.41457192686, 53.5228, 53.5228, 53.5228, 153326.236346172, 141.787394584301, 971.59192919104, -488.853190602105, -57.3765548360297, -47652.8963438642, 0, ]
  - [19000, -47660.4785631234, 2256.37753237122, -45404.1010307522, 1496.70721509972, 53.5228, 53.5228, 53.5228, 153326.236346172, -1122.30734268715, -1593.03240277416, -703.735456833904, -1070.15416845341, -47660.4785631234, 0, ]
  - [19100, -47658.2272685545, 2233.7900621493, -45424.4372064052, 1481.7244255767, 53.5228, 53.5228, 53.5228, 153326.236346172, -269.876587136226, -2253.2905708343, 498.872052835943, 944.788756589685, -47658.2272685545, 0, ]
  - [19200, -47664.3894550743, 2274.99775266355, -45389.3917024108, 1509.05843631978, 53.5228, 53.5228, 53.5228, 153326.236346172, -515.489754346676, -1147.78280636147, -25.4224030524133, -373.264053626137, -47664.3894550743, 0, ]
  - [19300, -47648.9467860009, 2256.730499984, -45392.2162860169, 1496.94134665136, 53.5228, 53.5228, 53.5228, 153326.236346172, 1273.9613289878, 593.583609689286, 1709.19436848186, 1519.10600879228, -47648.9467860009, 0, ]
  - [19400, -47672.1889933077, 2262.90529052938, -45409.2837027783, 1501.03722751723, 53.5228, 53.5228, 53.5228, 153326.236346172, -2000.65825171096, -3533.7670084869, -1013.4899788345, -1454.71776781147, -47672.1889933077, 0, ]
  - [19500, -47666.6968987357, 2253.37161520252, -45413.3252835332, 1494.71332097082, 53.5228, 53.5228, 53.5228, 153326.236346172, -1010.78786692383, -829.088479126496, -1637.40432150161, -565.870800143376, -47666.6968987357, 0, ]
  - [19600, -47675.1362730131, 2259.27870293126, -45415.8575700819, 1498.63162838924, 53.5228, 53.5228, 53.5228, 153326.236346172, -2192.71174516309, -1665.05955096974, -2585.76215534417, -2327.31352917537, -47675.1362730131, 0, ]
  - [19700, -47664.0242819786, 2243.68231566495, -45420.3419663137, 1488.28618529911, 53.5228, 53.5228, 53.5228, 153326.236346172, -762.018512465863, 416.768293199019, -1336.94603046788, -1365.87780012873, -47664.0242819786, 0, ]
  - [19800, -47670.0111382874, 2248.76162687855, -45421.2495114089, 1491.65540947904, 53.5228, 53.5228, 53.5228, 153326.236346172, -1277.1151683285, -2297.04963449158, -990.406388925404, -543.889481568535, -47670.0111382874, 0, ]
  - [19900, -47650.8489305693, 2233.15444853936, -45417.6944820299, 1481.30280842161, 53.5228, 53.5228, 53.5228, 153326.236346172, 460.187180113926, -318.463005993196, 43.9598339042712, 1655.06471243069, -47650.8489305693, 0, ]
  - [20000, -47645.6451055048, 2278.13274438611, -45367.5123611187, 1511.13794857476, 53.5228, 53.5228, 53.5228, 153326.236346172, 441.555792804035, 607.401542647146, 230.979089629022, 486.286746135934, -50057.3303003192, 0, ]
...
Loop time of 19.7043 on 64 procs for 20000 steps with 11664 atoms

Performance: 87.697 ns/day, 0.274 hours/ns, 1015.008 timesteps/s, 11.839 Matom-step/s
76.6% CPU use with 64 MPI tasks x 1 OpenMP threads

MPI task timing breakdown:
Section |  min time  |  avg time  |  max time  |%varavg| %total
---------------------------------------------------------------
Pair    | 12.035     | 12.368     | 12.669     |   4.6 | 62.77
Neigh   | 0.094125   | 0.097542   | 0.10851    |   0.9 |  0.50
Comm    | 4.1645     | 4.5883     | 4.903      |   9.2 | 23.29
Output  | 0.026023   | 0.027346   | 0.10026    |   5.6 |  0.14
Modify  | 1.9127     | 2.1051     | 2.2777     |   7.2 | 10.68
Other   |            | 0.518      |            |       |  2.63

Nlocal:         182.25 ave         191 max         173 min
Histogram: 2 2 4 14 5 11 12 11 2 1
Nghost:        1262.62 ave        1279 max        1237 min
Histogram: 1 0 2 3 10 16 12 9 7 4
Neighs:        7020.95 ave        7388 max        6673 min
Histogram: 3 6 8 6 9 14 5 7 2 4

Total # of neighbors = 449341
Ave neighs/atom = 38.523748
Neighbor list builds = 265
Dangerous builds = 0
fix fpf all print 1 "${dE} ${lambda}" title "# dE [eV] lambda" screen no file data/forward_${T}K.dat
fix fpf all print 1 "${dE} ${lambda}" title "# dE [eV] lambda" screen no file data/forward_1500K.dat
run ${t}
run 100000
Per MPI rank memory allocation (min/avg/max) = 3.736 | 3.736 | 3.736 Mbytes
---
keywords: ['Step', 'PotEng', 'KinEng', 'TotEng', 'Temp', 'Lx', 'Ly', 'Lz', 'Volume', 'Press', 'Pxx', 'Pyy', 'Pzz', 'v_dE', 'v_lambda', ]
data:
  - [20000, -47645.6451055048, 2278.13274438611, -45367.5123611187, 1511.13794857476, 53.5228, 53.5228, 53.5228, 153326.236346172, 441.555792804008, 607.401542647163, 230.979089628996, 486.286746135868, -50057.3303003192, 0, ]
  - [20100, -47630.0149734437, 2253.15072057598, -45376.8642528677, 1494.56679647455, 53.5228, 53.5228, 53.5228, 153326.236346172, 2021.41476739428, 2666.89964504428, 2583.2693412424, 814.07531589616, -50049.8277693643, 1.2558053968507e-13, ]
  - [20200, -47668.5147929305, 2283.3701087673, -45385.1446841632, 1514.61201306307, 53.5228, 53.5228, 53.5228, 153326.236346172, -780.890792779151, -494.28245086641, 116.002160820199, -1964.39208829124, -50077.3596062348, 4.00518903939584e-12, ]
  - [20300, -47653.9150699205, 2267.64599833419, -45386.2690715863, 1504.18184825305, 53.5228, 53.5228, 53.5228, 153326.236346172, -354.207507525725, 328.372008901369, -1065.93115105273, -325.063380425812, -50091.5505916195, 3.03129989146628e-11, ]
  - [20400, -47664.7006437383, 2281.27621549753, -45383.4244282407, 1513.22308540378, 53.5228, 53.5228, 53.5228, 153326.236346172, -591.907673385364, -1175.57832008921, -1565.82681391482, 965.682113847938, -50088.4429227701, 1.2731250673451e-10, ]
  - [20500, -47642.0497489228, 2256.90162086342, -45385.1481280594, 1497.05485507414, 53.5228, 53.5228, 53.5228, 153326.236346172, 1682.43525866235, 3169.31838488187, 1209.45297305241, 668.534418052788, -50147.9084953311, 3.87229564589844e-10, ]
  - [20600, -47655.9337956589, 2245.05479923096, -45410.8789964279, 1489.19658527712, 53.5228, 53.5228, 53.5228, 153326.236346172, 142.848378865699, -234.469241651159, -198.616464651994, 861.63084290026, -50201.3858877777, 9.60331117066399e-10, ]
  - [20700, -47646.4440922825, 2266.70300817193, -45379.7410841106, 1503.55634114736, 53.5228, 53.5228, 53.5228, 153326.236346172, 903.532189204085, 694.633664657837, 284.961064559199, 1731.00183839522, -50163.4230477756, 2.06871232013244e-09, ]
  - [20800, -47667.4067916923, 2240.40436404644, -45427.0024276458, 1486.11184445066, 53.5228, 53.5228, 53.5228, 153326.236346172, -1073.98172820593, -1733.50374217468, -1074.00145616494, -414.439986278178, -50085.3967945225, 4.0197947066522e-09, ]
  - [20900, -47685.5208988312, 2252.65483262958, -45432.8660662016, 1494.23786257204, 53.5228, 53.5228, 53.5228, 153326.236346172, -2351.3780125203, -3103.62612143166, -2029.95601882025, -1920.551897309, -50080.4877257104, 7.21953805066232e-09, ]
  - [21000, -47694.4492691908, 2226.07532473076, -45468.37394446, 1476.60706246203, 53.5228, 53.5228, 53.5228, 153326.236346172, -3854.57640140899, -4041.92950689085, -4615.52377587869, -2906.27592145744, -50133.6723030063, 1.218536857e-08, ]
  - [21100, -47647.9894255995, 2243.06387348251, -45404.925552117, 1487.87595834759, 53.5228, 53.5228, 53.5228, 153326.236346172, 949.379610599072, 1025.30137282939, 1558.21243373617, 264.625025231663, -50159.339272453, 1.95588260943488e-08, ]
  - [21200, -47672.5739635426, 2266.18044448635, -45406.3935190562, 1503.20971261231, 53.5228, 53.5228, 53.5228, 153326.236346172, -1317.36435944714, -1011.02053976526, -1626.77320294524, -1314.29933563091, -50216.6501198954, 3.01179328132704e-08, ]
  - [21300, -47655.1926380801, 2276.36775017445, -45378.8248879057, 1509.96718724014, 53.5228, 53.5228, 53.5228, 153326.236346172, 593.580766880031, 369.605905049062, 831.722456211326, 579.413939379705, -50228.5637629345, 4.47892862063179e-08, ]
  - [21400, -47669.0191885669, 2281.58244877133, -45387.4367397956, 1513.42621699139, 53.5228, 53.5228, 53.5228, 153326.236346172, -1524.09650321347, -1608.50791625014, -1425.71678515905, -1538.06480823121, -50250.8724121344, 6.46598787448807e-08, ]
  - [21500, -47627.0310026683, 2240.15845152417, -45386.8725511441, 1485.94872500762, 53.5228, 53.5228, 53.5228, 153326.236346172, 2793.87860592971, 2043.42452127998, 3387.90042528452, 2950.31087122463, -50223.2294593216, 9.09886469429883e-08, ]
  - [21600, -47679.1561383123, 2263.58777219224, -45415.56836612, 1501.48993333188, 53.5228, 53.5228, 53.5228, 153326.236346172, -1540.346784485, -548.744460258624, -1550.95054955966, -2521.34534363671, -50220.3185669083, 1.25217752321905e-07, ]
  - [21700, -47667.3048585313, 2237.06810544488, -45430.2367530864, 1483.89882723667, 53.5228, 53.5228, 53.5228, 153326.236346172, -932.808330470786, -993.934184122762, -1464.44758456978, -340.043222719809, -50194.7020058848, 1.68983596840977e-07, ]
  - [21800, -47661.5111491085, 2262.10870883409, -45399.4024402744, 1500.50883652164, 53.5228, 53.5228, 53.5228, 153326.236346172, -215.514926343994, -290.118158261899, -1109.55809742909, 753.131476659014, -50164.0216063023, 2.24127575334849e-07, ]
  - [21900, -47667.7259748863, 2242.28193409596, -45425.4440407903, 1487.35727993282, 53.5228, 53.5228, 53.5228, 153326.236346172, -1243.5359767302, -462.014451329108, -2410.06443953416, -858.52903932731, -50154.8730502635, 2.92706567484841e-07, ]
  - [22000, -47678.1735333105, 2246.57564532745, -45431.597887983, 1490.20539754059, 53.5228, 53.5228, 53.5228, 153326.236346172, -2339.71738496653, -2697.12596699976, -2462.16423988133, -1859.86194801852, -50148.8339250635, 3.7700317184e-07, ]
  - [22100, -47647.9918425636, 2240.46917805781, -45407.5226645058, 1486.15483707802, 53.5228, 53.5228, 53.5228, 153326.236346172, 1448.32187270164, 1294.08682050143, 1753.12894824946, 1297.74984935402, -50156.1849137935, 4.79535684391045e-07, ]
  - [22200, -47679.8731700009, 2245.28142018979, -45434.5917498111, 1489.34690818156, 53.5228, 53.5228, 53.5228, 153326.236346172, -2717.94315540252, -3527.85285317174, -2339.63142799612, -2286.34518503971, -50198.7846891227, 6.03067824188202e-07, ]
  - [22300, -47662.4658955942, 2257.33269953125, -45405.133196063, 1497.34079948865, 53.5228, 53.5228, 53.5228, 153326.236346172, -972.386817668562, -2246.27629093455, -686.396492151126, 15.5123300799826, -50193.3718532568, 7.50618208481703e-07, ]
  - [22400, -47665.6852895925, 2229.36652752849, -45436.318762064, 1478.79019312303, 53.5228, 53.5228, 53.5228, 153326.236346172, -1104.37105071574, -2352.3249392421, 82.2052975723278, -1042.99351047745, -50208.3304035463, 9.25469579851522e-07, ]
  - [22500, -47650.8642691498, 2240.17437691501, -45410.6898922348, 1485.95928868636, 53.5228, 53.5228, 53.5228, 153326.236346172, 409.741262039974, 119.655353020135, 471.592583834158, 637.975849265625, -50231.1241654188, 1.13117778778076e-06, ]
  - [22600, -47652.6332899901, 2263.96121043722, -45388.6720795529, 1501.73764352561, 53.5228, 53.5228, 53.5228, 153326.236346172, 974.131397640474, 556.315036323873, 198.145584015066, 2167.93357258248, -50228.9341627442, 1.37158052711496e-06, ]
  - [22700, -47651.3752586562, 2292.14655804245, -45359.2287006137, 1520.43363411922, 53.5228, 53.5228, 53.5228, 153326.236346172, 737.608976951884, 313.428170889714, 605.739991870182, 1293.65876809576, -50248.6010110969, 1.65080583583745e-06, ]
  - [22800, -47665.4933521012, 2274.4297636876, -45391.0635884136, 1508.68167614281, 53.5228, 53.5228, 53.5228, 153326.236346172, -1219.53251366187, -1303.65390032893, -1546.95362280218, -807.990017854486, -50265.641421861, 1.97328035457892e-06, ]
  - [22900, -47653.5956618245, 2265.21287800519, -45388.3827838193, 1502.56790346793, 53.5228, 53.5228, 53.5228, 153326.236346172, -205.971172303614, -162.480381772958, -257.572021329048, -197.861113808839, -50267.0186630466, 2.343737350267e-06, ]
  - [23000, -47666.5652187027, 2284.81468636365, -45381.7505323391, 1515.5702346728, 53.5228, 53.5228, 53.5228, 153326.236346172, -1667.72177769956, -3360.63234862985, -521.610479640408, -1120.92250482842, -50239.9059108597, 2.76722450631e-06, ]
  - [23100, -47696.1452594071, 2277.86087623545, -45418.2843831717, 1510.95761216527, 53.5228, 53.5228, 53.5228, 153326.236346172, -3544.55758258309, -3576.27044438717, -3044.65443100221, -4012.74787235988, -50235.4602183409, 3.2491114816967e-06, ]
  - [23200, -47662.7491055653, 2284.69670501492, -45378.0524005504, 1515.49197492532, 53.5228, 53.5228, 53.5228, 153326.236346172, -280.084633277, -721.085697863285, -765.890549331255, 646.722347363542, -50254.7488707925, 3.79509724138202e-06, ]
  - [23300, -47664.8475107522, 2220.81059371573, -45444.0369170365, 1473.11484505483, 53.5228, 53.5228, 53.5228, 153326.236346172, -1039.72830865722, -1350.66477908005, -1392.2866459052, -376.233500986407, -50214.6039196676, 4.41121716031674e-06, ]
  - [23400, -47666.6031418198, 2245.89971843359, -45420.7034233862, 1489.75703965526, 53.5228, 53.5228, 53.5228, 153326.236346172, -964.505795711491, -1714.31372254412, -302.526096961741, -876.677567628623, -50210.8228112541, 5.10384990346721e-06, ]
  - [23500, -47636.5433895832, 2246.89505300185, -45389.6483365814, 1490.41726801172, 53.5228, 53.5228, 53.5228, 153326.236346172, 2070.94203380776, 2456.75828644341, 2030.09463538304, 1725.97317959684, -50177.6063270768, 5.87972408415916e-06, ]
  - [23600, -47652.1508338041, 2258.59664531413, -45393.55418849, 1498.17920385388, 53.5228, 53.5228, 53.5228, 153326.236346172, 73.1945003815459, 1299.20592347246, 284.226193351019, -1363.84861567884, -50174.9092481434, 6.74592470306796e-06, ]
  - [23700, -47660.7524475477, 2228.50885640185, -45432.2435911459, 1478.22128009983, 53.5228, 53.5228, 53.5228, 153326.236346172, -753.465849571793, -1256.39382472353, -581.475405889487, -422.528318102356, -50202.8688559124, 7.70989937016563e-06, ]
  - [23800, -47653.2452004352, 2230.8282575278, -45422.4169429074, 1479.75979231692, 53.5228, 53.5228, 53.5228, 153326.236346172, -1133.12303407078, -798.604876987047, -1853.13861936241, -747.625605862885, -50221.9753436549, 8.77946431192315e-06, ]
  - [23900, -47652.2011824862, 2266.61482644932, -45385.5863560369, 1503.49784817862, 53.5228, 53.5228, 53.5228, 153326.236346172, 362.033842813924, 831.782521748576, 436.288240473427, -181.969233780239, -50206.8662329074, 9.96281016605489e-06, ]
  - [24000, -47632.0494358525, 2260.05908280415, -45371.9903530483, 1499.14927234265, 53.5228, 53.5228, 53.5228, 153326.236346172, 2385.23653943996, 913.649734197664, 3507.23402203214, 2734.82586209008, -50160.110156075, 1.126850756608e-05, ]
  - [24100, -47666.3583367467, 2287.24429209385, -45379.1140446529, 1517.18184814354, 53.5228, 53.5228, 53.5228, 153326.236346172, -1133.85916104888, -1448.21625622907, -269.625483564931, -1683.73574335262, -50142.1686994013, 1.2705512517964e-05, ]
  - [24200, -47644.5769662179, 2265.15521508269, -45379.4217511353, 1502.52965432261, 53.5228, 53.5228, 53.5228, 153326.236346172, 1123.17536282446, -5.98429249233368, 2580.26845725286, 795.241923712848, -50085.5165550883, 1.42831715710919e-05, ]
  - [24300, -47672.4795179751, 2279.13911157892, -45393.3404063962, 1511.80549512533, 53.5228, 53.5228, 53.5228, 153326.236346172, -1594.37641965967, -1907.14582993406, -1286.038633214, -1589.94479583097, -50063.5119677012, 1.60112267858132e-05, ]
  - [24400, -47665.6414367592, 2268.77309806906, -45396.8683386901, 1504.92947948103, 53.5228, 53.5228, 53.5228, 153326.236346172, -867.641011691399, -2485.69320838966, 223.985111939763, -341.214938624292, -50047.7859320315, 1.78998204997854e-05, ]
  - [24500, -47685.3016341659, 2271.14524948598, -45414.15638468, 1506.50298218174, 53.5228, 53.5228, 53.5228, 153326.236346172, -3236.53896621068, -3347.42368651168, -2003.42260033399, -4358.77061178636, -50033.8715846978, 1.99594998953344e-05, ]
  - [24600, -47676.8435017736, 2239.67116921063, -45437.172332563, 1485.6254994197, 53.5228, 53.5228, 53.5228, 153326.236346172, -1808.80520613549, -2472.86362516125, -1648.52652260467, -1305.02547064053, -49988.3873780911, 2.2201221370035e-05, ]
  - [24700, -47655.9356521935, 2258.51026298784, -45397.4253892056, 1498.12190446618, 53.5228, 53.5228, 53.5228, 153326.236346172, -350.363432718819, 120.43591045168, -910.992474259993, -260.533734348149, -50027.1122838781, 2.46363547127047e-05, ]
  - [24800, -47653.6277691412, 2264.45422076325, -45389.173548378, 1502.06466863622, 53.5228, 53.5228, 53.5228, 153326.236346172, 696.269967053264, 1008.25077450351, 984.474350956185, 96.0847757001089, -50032.6242878086, 2.7276687086994e-05, ]
  - [24900, -47632.6589683602, 2234.06379588277, -45398.5951724775, 1481.90599947026, 53.5228, 53.5228, 53.5228, 153326.236346172, 1628.48038611087, 1774.07987176495, 1379.59105800626, 1731.77022856142, -50031.9067809625, 3.01344268247409e-05, ]
  - [25000, -47646.4188098138, 2280.3720940902, -45366.0467157236, 1512.62336083896, 53.5228, 53.5228, 53.5228, 153326.236346172, 1121.90840268416, 1566.67946043604, 1018.38986344261, 780.655884173837, -49997.6497362647, 3.322220703125e-05, ]
  - [25100, -47634.0276742704, 2261.83476977655, -45372.1929044939, 1500.32712643189, 53.5228, 53.5228, 53.5228, 153326.236346172, 2148.55177846845, 1721.41541101964, 2038.46742715816, 2685.77249722756, -49987.9299537793, 3.6553089004642e-05, ]
  - [25200, -47655.6555552374, 2257.96715871803, -45397.6883965194, 1497.76165088826, 53.5228, 53.5228, 53.5228, 153326.236346172, -360.19750245702, -485.30665382903, -374.442906594015, -220.842946948013, -50014.5658909971, 4.01405654714096e-05, ]
  - [25300, -47657.6098843551, 2268.21003562065, -45389.3998487345, 1504.55598718331, 53.5228, 53.5228, 53.5228, 153326.236346172, -361.732626509957, -884.084429837663, -585.222932972434, 384.109483280232, -50038.7290129936, 4.39985636403039e-05, ]
  - [25400, -47660.4644450797, 2275.14392404019, -45385.3205210396, 1509.1553951624, 53.5228, 53.5228, 53.5228, 153326.236346172, -930.24962745883, -2376.21061615372, 740.297527143366, -1154.83579336614, -49987.119944936, 4.81414480766634e-05, ]
  - [25500, -47686.5189647299, 2266.5663382554, -45419.9526264745, 1503.46568484218, 53.5228, 53.5228, 53.5228, 153326.236346172, -2752.72658258065, -2642.24922069213, -2943.05366869887, -2672.87685835095, -49969.6672212266, 5.25840233992879e-05, ]
  - [25600, -47667.7180243407, 2272.01675192986, -45395.7012724109, 1507.08106983641, 53.5228, 53.5228, 53.5228, 153326.236346172, -994.941176250541, -884.125833119312, -2514.5546217309, 413.856926098574, -49971.5912066982, 5.7341536801945e-05, ]
  - [25700, -47642.726621607, 2274.60340957006, -45368.123212037, 1508.79685945829, 53.5228, 53.5228, 53.5228, 153326.236346172, 1381.82651864042, 1313.22840963246, 1910.87557002027, 921.375576268535, -49924.3330928777, 6.24296804015908e-05, ]
  - [25800, -47666.0213591575, 2298.22513249146, -45367.7962266661, 1524.46569263107, 53.5228, 53.5228, 53.5228, 153326.236346172, -1141.84744391737, 137.67303906406, -702.245842352919, -2860.96952846325, -49936.4621224294, 6.78645934153687e-05, ]
  - [25900, -47660.9407621228, 2253.70392646685, -45407.236835656, 1494.93375069051, 53.5228, 53.5228, 53.5228, 153326.236346172, -897.111349477294, 80.2030979757147, -2490.57365665819, -280.963489749401, -49972.0794785999, 7.36628641684442e-05, ]
  - [26000, -47665.7727003804, 2253.61175845501, -45412.1609419254, 1494.87261352426, 53.5228, 53.5228, 53.5228, 153326.236346172, -1093.57254556985, -1558.71575339849, -1206.54285610609, -515.459027204983, -49959.7186742844, 7.98415319347201e-05, ]
  - [26100, -47675.1253591021, 2263.52555320342, -45411.5998058986, 1501.44866204278, 53.5228, 53.5228, 53.5228, 153326.236346172, -2402.16366744546, -2917.79709991047, -2825.18088239472, -1463.51302003119, -49937.9055026546, 8.64180886124637e-05, ]
  - [26200, -47675.853159182, 2240.97526727517, -45434.8778919068, 1486.49053771865, 53.5228, 53.5228, 53.5228, 153326.236346172, -2341.89816671223, -1701.65529182555, -2216.19542832399, -3107.84377998713, -49886.2462872588, 9.34104802368714e-05, ]
  - [26300, -47648.5429490253, 2233.97853573218, -45414.5644132931, 1481.84944444757, 53.5228, 53.5228, 53.5228, 153326.236346172, -135.938502677746, -448.543249825051, -348.368603451016, 389.096345242843, -49844.3133620182, 0.000100837108331577, ]
  - [26400, -47692.7010901014, 2251.45860603188, -45441.2424840695, 1493.44437790293, 53.5228, 53.5228, 53.5228, 153326.236346172, -3582.90579027869, -4334.6899621452, -2595.38946490513, -3818.63794378572, -49851.9898214687, 0.000108716831101108, ]
  - [26500, -47638.0571438606, 2254.27899195919, -45383.7781519015, 1495.31520488388, 53.5228, 53.5228, 53.5228, 153326.236346172, 1347.35661762501, 1896.56343998184, 1606.27208594168, 539.23432695153, -49793.0334984278, 0.000117068964466276, ]
  - [26600, -47669.8743062289, 2305.93261117537, -45363.9416950535, 1529.57824085979, 53.5228, 53.5228, 53.5228, 153326.236346172, -1309.93966705123, -2028.24492537831, -2116.25469573908, 214.68061996369, -49823.2704513018, 0.000125913282944476, ]
  - [26700, -47648.1920267054, 2288.81350887392, -45359.3785178315, 1518.22274579612, 53.5228, 53.5228, 53.5228, 153326.236346172, 989.007200343976, 1247.70052428182, 543.25169885336, 1176.06937789676, -49824.8001250972, 0.000135270020376872, ]
  - [26800, -47658.6093442563, 2279.91905181876, -45378.6902924376, 1512.32284746002, 53.5228, 53.5228, 53.5228, 153326.236346172, 106.439117999059, 547.741318902593, -805.653950593769, 577.229985688359, -49832.8920319992, 0.000145159870504403, ]
  - [26900, -47660.4766206404, 2275.58350304548, -45384.8931175949, 1509.44697804664, 53.5228, 53.5228, 53.5228, 153326.236346172, -584.387272121551, -2424.09589934468, -786.022711465548, 1456.95679444558, -49819.0656575528, 0.000155603987394582, ]
  - [27000, -47652.8022302332, 2279.23028109487, -45373.5719491383, 1511.86596996625, 53.5228, 53.5228, 53.5228, 153326.236346172, 112.425478126223, -120.828814443966, 572.262052609541, -114.156803786896, -49790.8589729157, 0.00016662398572099, ]
  - [27100, -47667.2657922777, 2280.46864279399, -45386.7971494837, 1512.68740381913, 53.5228, 53.5228, 53.5228, 153326.236346172, -254.719210497948, -208.632673027807, -107.686116441864, -447.838842024175, -49787.7005049508, 0.000178241940897419, ]
  - [27200, -47650.1286967298, 2270.40082100362, -45379.7278757262, 1506.00918561415, 53.5228, 53.5228, 53.5228, 153326.236346172, 572.017750076336, -341.635768505306, 1000.55862518532, 1057.13039354899, -49762.4226587392, 0.000190480389068545, ]
  - [27300, -47640.6452074145, 2268.77275996764, -45371.8724474468, 1504.92925521057, 53.5228, 53.5228, 53.5228, 153326.236346172, 1259.94270788641, 417.52360675744, 2718.25677547578, 644.047741426019, -49743.2296454009, 0.000203362326959055, ]
  - [27400, -47646.789397991, 2265.92810571051, -45380.8612922805, 1503.04233048719, 53.5228, 53.5228, 53.5228, 153326.236346172, 999.650889131169, 646.774953114314, 1006.96125665256, 1345.21645762663, -49716.6886565818, 0.000216911211583103, ]
  - [27500, -47655.8397513939, 2290.94943172174, -45364.8903196721, 1519.6395526431, 53.5228, 53.5228, 53.5228, 153326.236346172, -7.09383042463652, -431.929206428036, 400.194209542222, 10.4535056119091, -49706.0683316367, 0.000231150959815979, ]
  - [27600, -47661.651891095, 2275.3109904271, -45386.3409006679, 1509.26621414685, 53.5228, 53.5228, 53.5228, 153326.236346172, -1282.31717977338, -1851.50897250543, -130.434783559997, -1865.0077832547, -49796.7123040238, 0.00024610594782986, ]
  - [27700, -47647.88268991, 2270.58704085144, -45377.2956490585, 1506.13270953062, 53.5228, 53.5228, 53.5228, 153326.236346172, 147.635549815799, -484.15481224712, 665.989994589218, 261.071467105303, -49833.2235398816, 0.000261801010395495, ]
  - [27800, -47653.9134342941, 2256.94950855041, -45396.9639257437, 1497.08662008048, 53.5228, 53.5228, 53.5228, 153326.236346172, -264.379805512053, 42.2235213992815, -762.086880067695, -73.27605786774, -49831.2842992114, 0.000278261440051671, ]
  - [27900, -47667.0109129947, 2267.2398304181, -45399.7710825766, 1503.91242771423, 53.5228, 53.5228, 53.5228, 153326.236346172, -1017.87819765077, -601.389002310761, -970.9469423714, -1481.29864827015, -49819.6108684849, 0.000295512986144304, ]
  - [28000, -47655.9642938607, 2238.74103373941, -45417.2232601213, 1485.00851912681, 53.5228, 53.5228, 53.5228, 153326.236346172, -251.260664127058, -1094.09968743733, -1460.0660817473, 1800.38377680346, -49860.0233092958, 0.00031358185373696, ]
  - [28100, -47653.4782758399, 2248.86208001432, -45404.6161958256, 1491.72204235893, 53.5228, 53.5228, 53.5228, 153326.236346172, -239.197452234133, 45.0528094494316, -2027.17335846576, 1264.52819231393, -49871.3456673051, 0.000332494702394641, ]
  - [28200, -47660.3894721985, 2263.06123246017, -45397.3282397383, 1501.14066739358, 53.5228, 53.5228, 53.5228, 153326.236346172, 190.462615497143, 0.583868097855135, 62.7291458311368, 508.074832562436, -49824.6583911821, 0.000352278644842627, ]
  - [28300, -47660.1645427717, 2272.90297182988, -45387.2615709418, 1507.6689199189, 53.5228, 53.5228, 53.5228, 153326.236346172, -617.095442783341, -819.201892101994, 18.6239706224434, -1050.70840687048, -49771.0155518981, 0.000372961245502164, ]
  - [28400, -47692.6912173329, 2271.52022467231, -45421.1709926606, 1506.75171186408, 53.5228, 53.5228, 53.5228, 153326.236346172, -3562.73479976547, -3067.80740782106, -4071.87379851905, -3548.52319295631, -49807.8242989409, 0.000394570518904788, ]
  - [28500, -47638.0285887722, 2253.50448816908, -45384.5241006031, 1494.80145867158, 53.5228, 53.5228, 53.5228, 153326.236346172, 1285.67452782698, 1474.97004358946, 1111.39959909473, 1270.65394079676, -49780.0982346091, 0.000417134927987054, ]
  - [28600, -47649.1588225727, 2265.50441852924, -45383.6544040435, 1502.76128901605, 53.5228, 53.5228, 53.5228, 153326.236346172, 468.782201567316, 565.923929888168, 171.387899234565, 669.034775579215, -49745.1566127878, 0.000440683382267422, ]
  - [28700, -47663.8682698474, 2259.92878675924, -45403.9394830882, 1499.06284397342, 53.5228, 53.5228, 53.5228, 153326.236346172, -1094.63406825943, -836.91671723536, -1200.69095791803, -1246.29452962491, -49732.8531612819, 0.000465245235907057, ]
  - [28800, -47664.4633874782, 2265.80204075232, -45398.6613467259, 1502.95870869527, 53.5228, 53.5228, 53.5228, 153326.236346172, -254.18165379482, -479.355667770207, -35.4928363442138, -247.696457270042, -49713.4231161442, 0.000490850285656287, ]
  - [28900, -47663.0575961632, 2255.30698852223, -45407.750607641, 1495.99709869417, 53.5228, 53.5228, 53.5228, 153326.236346172, -1287.92862969362, -1796.30794286348, -939.222632417927, -1128.25531379946, -49724.3942537916, 0.000517528768688429, ]
  - [29000, -47648.0452007494, 2261.25493747113, -45386.7902632782, 1499.94251030155, 53.5228, 53.5228, 53.5228, 153326.236346172, 309.66855668689, -386.746863505384, 44.6057661351203, 1271.14676743094, -49710.8020681438, 0.00054531136032273, ]
  - [29100, -47657.5882812458, 2265.28992019986, -45392.298361046, 1502.61900733109, 53.5228, 53.5228, 53.5228, 153326.236346172, -514.199122110707, 2.91998839058126, -1717.67590073784, 172.158546015137, -49696.2706126442, 0.000574229171638096, ]
  - [29200, -47657.0706220756, 2240.14592669972, -45416.9246953759, 1485.94041700293, 53.5228, 53.5228, 53.5228, 153326.236346172, -133.664401448352, 75.3513265571974, -588.197699631807, 111.853168729552, -49658.4348845916, 0.000604313746979337, ]
  - [29300, -47667.7369800711, 2283.01633879781, -45384.7206412733, 1514.37734928973, 53.5228, 53.5228, 53.5228, 153326.236346172, -768.725397161801, -1913.27372106338, -35.0757162349428, -357.826754187074, -49657.8884153331, 0.000635597061357593, ]
  - [29400, -47658.7588166639, 2262.46135387132, -45396.2974627926, 1500.74275410148, 53.5228, 53.5228, 53.5228, 153326.236346172, -465.407075295232, -139.116898700816, -754.115825327023, -502.988501857863, -49654.3496811058, 0.000668111517746635, ]
  - [29500, -47642.6591628898, 2254.70516739871, -45387.9539954911, 1495.59789687406, 53.5228, 53.5228, 53.5228, 153326.236346172, 292.673799106756, 752.552827596225, -142.569873072666, 268.038442796712, -49597.1348714012, 0.000701889944276683, ]
  - [29600, -47665.8697556498, 2272.96398983668, -45392.9057658131, 1507.70939456896, 53.5228, 53.5228, 53.5228, 153326.236346172, -550.523559741765, -1672.80177593702, 55.5925768201208, -34.3614801084096, -49623.2928918233, 0.000736965591327429, ]
  - [29700, -47667.3641221567, 2270.61889165226, -45396.7452305045, 1506.1538369008, 53.5228, 53.5228, 53.5228, 153326.236346172, -1677.68969515951, -819.930052305572, -1662.8180128879, -2550.32102028505, -49671.9271814563, 0.000773372128521878, ]
  - [29800, -47654.5585482378, 2257.31338652049, -45397.2451617173, 1497.32798872355, 53.5228, 53.5228, 53.5228, 153326.236346172, -117.121581416182, -1041.81453207839, 123.613584044441, 566.836203785408, -49644.3174763353, 0.00081114364162266, ]
  - [29900, -47652.8372087543, 2241.45299352903, -45411.3842152253, 1486.80742455196, 53.5228, 53.5228, 53.5228, 153326.236346172, 565.825012462217, 548.127267272331, 82.0513406836439, 1067.29642943067, -49631.5442650231, 0.000850314629332433, ]
  - [30000, -47654.5673358549, 2271.80259434369, -45382.7647415112, 1506.93901417428, 53.5228, 53.5228, 53.5228, 153326.236346172, -324.943934270776, -427.167348550051, 331.812076080252, -879.476530342525, -49667.9366162, 0.000890920000000001, ]
  - [30100, -47655.2601025691, 2240.61377339483, -45414.6463291743, 1486.25075049725, 53.5228, 53.5228, 53.5228, 153326.236346172, -736.235914473464, -1104.30529981072, -755.895401627532, -348.507041982155, -49670.876607071, 0.000932995068233718, ]
  - [30200, -47653.8589079935, 2277.84119891467, -45376.0177090788, 1510.94455974493, 53.5228, 53.5228, 53.5228, 153326.236346172, -193.96217979217, -435.599071973095, 374.071934969612, -520.359402373029, -49723.7781537572, 0.000976575551423828, ]
  - [30300, -47658.9361575411, 2256.15518027015, -45402.7809772709, 1496.55972382701, 53.5228, 53.5228, 53.5228, 153326.236346172, -358.995639658771, -608.553969972898, 274.223692582612, -742.656641586018, -49747.7154848568, 0.00102169756617526, ]
  - [30400, -47645.5404130492, 2265.36808718188, -45380.1723258673, 1502.6708572916, 53.5228, 53.5228, 53.5228, 153326.236346172, 672.881614327252, 706.050367680751, 2365.34928336492, -1052.75480806392, -49736.4421330555, 0.00106839762465251, ]
  - [30500, -47648.7218051183, 2278.34196085594, -45370.3798442624, 1511.27672668056, 53.5228, 53.5228, 53.5228, 153326.236346172, 916.403970524897, -134.43019568694, 1444.57603318619, 1439.06607407543, -49738.5125040457, 0.00111671263083812, ]
  - [30600, -47659.8567634634, 2276.87136467929, -45382.9853987841, 1510.30124634692, 53.5228, 53.5228, 53.5228, 153326.236346172, -891.221452909331, -1127.4702747413, -1334.34161015961, -211.852473827074, -49761.6132236319, 0.00116667987670637, ]
  - [30700, -47669.0208353081, 2264.08286031737, -45404.9379749908, 1501.81833669452, 53.5228, 53.5228, 53.5228, 153326.236346172, -1797.92687825913, -1266.59758394191, -2201.81780795223, -1925.36524288325, -49752.3988229976, 0.00121833703831365, ]
  - [30800, -47653.0718566787, 2269.07165895604, -45384.0001977227, 1505.12752179765, 53.5228, 53.5228, 53.5228, 153326.236346172, -230.243103005755, -7.37740668997696, 249.955162294807, -933.307064622099, -49752.5360091006, 0.00127172217180712, ]
  - [30900, -47646.5378383146, 2281.29130032587, -45365.2465379887, 1513.23309151804, 53.5228, 53.5228, 53.5228, 153326.236346172, 89.7055060169267, -477.604381467326, 715.338079596309, 31.3828199217923, -49732.8207553981, 0.00132687370935312, ]
  - [31000, -47651.8130356388, 2248.54350758425, -45403.2695280545, 1491.51072592461, 53.5228, 53.5228, 53.5228, 153326.236346172, 673.017424707067, 424.839294754784, 376.968283915811, 1217.24469545061, -49744.6796094921, 0.00138383045498687, ]
  - [31100, -47650.2595188394, 2263.50849304213, -45386.7510257973, 1501.43734564464, 53.5228, 53.5228, 53.5228, 153326.236346172, 1640.34674056961, 2386.74101935574, 996.464341177216, 1537.83486117588, -49724.1816761093, 0.00144263158038501, ]
  - [31200, -47640.3136822662, 2269.02701705422, -45371.286665212, 1505.09790979541, 53.5228, 53.5228, 53.5228, 153326.236346172, 2323.12508664504, 2933.98766710462, 766.478514596417, 3268.90907823408, -49685.7117716084, 0.00150331662056234, ]
  - [31300, -47633.2122607057, 2245.64818290336, -45387.5640778024, 1489.59019034146, 53.5228, 53.5228, 53.5228, 153326.236346172, 1856.40148030651, 2797.28647896864, 1479.46257479093, 1292.45538715997, -49734.4254178986, 0.00156592546949443, ]
  - [31400, -47665.2335739002, 2269.76534596903, -45395.4682279311, 1505.58766037928, 53.5228, 53.5228, 53.5228, 153326.236346172, -1398.42968669271, -1786.75770676401, -323.542459331516, -2084.98889398261, -49675.0291535535, 0.00163049837566735, ]
  - [31500, -47660.0497390712, 2242.76284383313, -45417.286895238, 1487.67627844398, 53.5228, 53.5228, 53.5228, 153326.236346172, -1081.81049655414, -1287.04081233691, 183.773310086821, -2142.16398741233, -49637.8614911929, 0.00169707593755625, ]
  - [31600, -47633.991613887, 2248.71387243609, -45385.2777414509, 1491.62373285687, 53.5228, 53.5228, 53.5228, 153326.236346172, 1183.77796937846, 1581.637147761, 1983.51543067055, -13.8186702961764, -49647.9494046142, 0.00176569909903396, ]
  - [31700, -47649.1077308538, 2301.59094825599, -45347.5167825978, 1526.6983157924, 53.5228, 53.5228, 53.5228, 153326.236346172, 396.31830295627, 505.34702921069, 181.251688014596, 502.356191643527, -49645.8608494014, 0.0018364091447113, ]
[...]
  - [232600, -47637.800765005, 2250.65959536756, -45387.1411696375, 1492.91437571621, 53.5228, 53.5228, 53.5228, 153326.236346172, 1002.28724848328, 947.230233015824, 1490.00823929678, 569.623273137235, -49534.630760825, 0.000216911211583102, ]
  - [232700, -47656.560076918, 2250.77701206637, -45405.7830648516, 1492.99226091837, 53.5228, 53.5228, 53.5228, 153326.236346172, -44.4792960463592, -333.519274101105, 282.117877249714, -82.0364912876943, -49547.7309517378, 0.000203362326959055, ]
  - [232800, -47646.5168129469, 2259.76127431287, -45386.755538634, 1498.95172910744, 53.5228, 53.5228, 53.5228, 153326.236346172, 1496.87449204095, 1154.63288078273, 2811.79033779379, 524.200257546322, -49526.8864503386, 0.000190480389068545, ]
  - [232900, -47642.1966732218, 2274.92607271742, -45367.2706005044, 1509.01088935965, 53.5228, 53.5228, 53.5228, 153326.236346172, 636.79305289931, 605.452948736652, 752.108660380782, 552.817549580494, -49544.3127181693, 0.000178241940897418, ]
  - [233000, -47646.5111709564, 2270.61839750471, -45375.8927734517, 1506.15350912135, 53.5228, 53.5228, 53.5228, 153326.236346172, 383.661481154884, 60.0312347414954, 97.8880299801011, 993.065178743066, -49533.3577520202, 0.000166623985720989, ]
  - [233100, -47627.5788498227, 2271.32920431184, -45356.2496455109, 1506.62500365694, 53.5228, 53.5228, 53.5228, 153326.236346172, 2678.37157884818, 3318.57940769609, 2773.47651319731, 1943.05881565116, -49482.9244611653, 0.000155603987394581, ]
  - [233200, -47650.6183531965, 2260.98011428522, -45389.6382389113, 1499.76021374908, 53.5228, 53.5228, 53.5228, 153326.236346172, 339.7753661969, 704.539661528525, 1338.57071490074, -1023.78427783856, -49556.4838229955, 0.000145159870504403, ]
  - [233300, -47668.3664688985, 2298.22181605132, -45370.1446528472, 1524.4634927599, 53.5228, 53.5228, 53.5228, 153326.236346172, -896.297857727541, -1668.60336774134, -1229.29103695209, 209.000831510806, -49615.9445173372, 0.000135270020376871, ]
  - [233400, -47650.8685107827, 2258.42524165264, -45392.4432691301, 1498.06550785523, 53.5228, 53.5228, 53.5228, 153326.236346172, 15.4513764843999, 208.546778661574, 1085.8362325563, -1248.02888176468, -49599.8507992986, 0.000125913282944476, ]
  - [233500, -47643.083158197, 2277.79368359356, -45365.2894746035, 1510.91304173746, 53.5228, 53.5228, 53.5228, 153326.236346172, 1035.80743003737, -623.463124842802, 1860.0101788853, 1870.87523606962, -49630.1582182628, 0.000117068964466275, ]
  - [233600, -47642.812592934, 2266.29988521548, -45376.5127077185, 1503.28894040044, 53.5228, 53.5228, 53.5228, 153326.236346172, 781.271028934957, -30.6430316457922, 1437.08479165957, 937.371326791099, -49676.6617919702, 0.000108716831101108, ]
  - [233700, -47660.1200125079, 2254.65113198164, -45405.4688805263, 1495.56205393668, 53.5228, 53.5228, 53.5228, 153326.236346172, -1335.00791602054, -1542.89279960926, -1970.18292929934, -491.948019153015, -49678.2628261617, 0.000100837108331576, ]
  - [233800, -47661.7316232593, 2251.34964989892, -45410.3819733604, 1493.37210478906, 53.5228, 53.5228, 53.5228, 153326.236346172, -899.055976031187, -2102.83308699666, -1221.47957374979, 627.144732652883, -49631.0511174582, 9.34104802368709e-05, ]
  - [233900, -47662.3460698285, 2265.56712850861, -45396.7789413199, 1502.8028859905, 53.5228, 53.5228, 53.5228, 153326.236346172, -1015.13414737705, -520.670174553822, -1338.86560773481, -1185.86665984252, -49622.0619921819, 8.64180886124633e-05, ]
  - [234000, -47663.3869212851, 2246.01219964952, -45417.3747216356, 1489.8316510379, 53.5228, 53.5228, 53.5228, 153326.236346172, -1948.70675388772, -1817.40621434535, -2545.18648125514, -1483.52756606266, -49615.3980956619, 7.98415319347196e-05, ]
  - [234100, -47674.2391705915, 2269.44191124305, -45404.7972593484, 1505.37311867204, 53.5228, 53.5228, 53.5228, 153326.236346172, -1122.684057461, -752.190050071215, -1513.02498167395, -1102.83714063783, -49601.1450434517, 7.36628641684439e-05, ]
  - [234200, -47669.9177968452, 2258.05013453573, -45411.8676623095, 1497.8166906603, 53.5228, 53.5228, 53.5228, 153326.236346172, -1046.09137204454, -2207.5642991623, 324.845207596601, -1255.5550245679, -49599.2770993058, 6.78645934153684e-05, ]
  - [234300, -47655.955681738, 2258.54268723745, -45397.4129945006, 1498.14341221816, 53.5228, 53.5228, 53.5228, 153326.236346172, -561.493668574828, -580.197234157211, -1432.68232936673, 328.39855779946, -49602.7862579716, 6.24296804015905e-05, ]
  - [234400, -47651.3285150186, 2257.62644942473, -45393.7020655938, 1497.53565056242, 53.5228, 53.5228, 53.5228, 153326.236346172, 35.4613687555357, 535.900979512501, -218.933578928432, -210.583294317472, -49634.9722259711, 5.73415368019447e-05, ]
  - [234500, -47639.7428952865, 2265.24617657492, -45374.4967187116, 1502.5899911766, 53.5228, 53.5228, 53.5228, 153326.236346172, 1143.67175097326, 1756.48958170335, 744.791989462264, 929.733681754158, -49656.8551115998, 5.25840233992875e-05, ]
  - [234600, -47630.7381698879, 2274.57797064922, -45356.1601992387, 1508.77998523586, 53.5228, 53.5228, 53.5228, 153326.236346172, 1906.57997252948, 1547.56393431678, 2635.57537577481, 1536.60060749687, -49695.4526858182, 4.81414480766631e-05, ]
  - [234700, -47656.4740785469, 2278.1401547595, -45378.3339237874, 1511.1428640462, 53.5228, 53.5228, 53.5228, 153326.236346172, 705.955571013098, 2019.51855173229, -463.315107200221, 561.663268507227, -49689.2128639429, 4.39985636403036e-05, ]
  - [234800, -47660.977245524, 2275.16014838655, -45385.8170971374, 1509.16615714522, 53.5228, 53.5228, 53.5228, 153326.236346172, -770.565373183074, -626.508423389604, -202.166955544199, -1483.02074061541, -49684.5457875154, 4.01405654714093e-05, ]
  - [234900, -47649.8084550299, 2230.11905159129, -45419.6894034386, 1479.28935967569, 53.5228, 53.5228, 53.5228, 153326.236346172, 543.790425462513, 66.1325520351829, -5.68607023039897, 1570.92479458276, -49652.7065095542, 3.65530890046418e-05, ]
  - [235000, -47643.4899464956, 2239.55792735998, -45403.9320191356, 1485.55038349052, 53.5228, 53.5228, 53.5228, 153326.236346172, 1040.54574748686, 36.4834912138183, 1678.0344290884, 1407.11932215837, -49621.0470688182, 3.32222070312498e-05, ]
  - [235100, -47658.3277246938, 2239.54678834675, -45418.780936347, 1485.54299472635, 53.5228, 53.5228, 53.5228, 153326.236346172, -548.313097580781, 214.544602760732, -646.561123282929, -1212.92277222015, -49600.6495663367, 3.01344268247407e-05, ]
  - [235200, -47684.6016089994, 2249.00614946502, -45435.5954595344, 1491.81760694564, 53.5228, 53.5228, 53.5228, 153326.236346172, -3089.01913921044, -1988.82037949851, -3410.09683665641, -3868.14020147639, -49632.8623366306, 2.72766870869938e-05, ]
  - [235300, -47667.3242590017, 2286.48091346305, -45380.8433455386, 1516.67548150578, 53.5228, 53.5228, 53.5228, 153326.236346172, -963.983630305863, -1690.14485669377, -729.174540066632, -472.631494157195, -49611.6407201689, 2.46363547127045e-05, ]
  - [235400, -47651.8951950266, 2258.21341332557, -45393.681781701, 1497.92499724434, 53.5228, 53.5228, 53.5228, 153326.236346172, 84.6505241176383, 484.604019063412, -278.043412394311, 47.3909656838084, -49657.3937902377, 2.22012213700348e-05, ]
  - [235500, -47684.4698044895, 2260.97040021653, -45423.499404273, 1499.75377018346, 53.5228, 53.5228, 53.5228, 153326.236346172, -2701.61517862282, -2746.11023308236, -1460.02268312465, -3898.71261966145, -49691.0433388897, 1.99594998953343e-05, ]
  - [235600, -47675.4460248894, 2262.58961196216, -45412.8564129273, 1500.82783064882, 53.5228, 53.5228, 53.5228, 153326.236346172, -1566.63843050165, -2203.09519734696, -401.876129491147, -2094.94396466685, -49703.0724052332, 1.78998204997852e-05, ]
  - [235700, -47660.0181000842, 2228.56592146428, -45431.4521786199, 1478.2591326708, 53.5228, 53.5228, 53.5228, 153326.236346172, -426.029325733438, -1602.22424362818, -640.171686267474, 964.307952695347, -49707.9565879623, 1.6011226785813e-05, ]
  - [235800, -47652.9050637379, 2252.42147721636, -45400.4835865216, 1494.08307254881, 53.5228, 53.5228, 53.5228, 153326.236346172, 465.716402356461, 1143.63082897774, -649.072315191284, 902.590693282924, -49706.159968234, 1.42831715710918e-05, ]
  - [235900, -47632.8818738893, 2237.10716157056, -45395.7747123187, 1483.92473406488, 53.5228, 53.5228, 53.5228, 153326.236346172, 2149.81800494027, 3665.88237966651, 1101.85712444667, 1681.71451070762, -49701.3323509641, 1.27055125179639e-05, ]
  - [236000, -47638.0770381559, 2273.87469249671, -45364.2023456591, 1508.31348463036, 53.5228, 53.5228, 53.5228, 153326.236346172, 1984.89795620176, 1288.7190538055, 2103.19825235715, 2562.77656244263, -49702.4651171332, 1.12685075660799e-05, ]
  - [236100, -47671.340905793, 2246.44280008629, -45424.8981057067, 1490.11727823073, 53.5228, 53.5228, 53.5228, 153326.236346172, -1255.48667266959, -1160.63645363573, -2049.96670116231, -555.856863210731, -49708.2914579403, 9.96281016605479e-06, ]
  - [236200, -47672.8332277526, 2267.01745710526, -45405.8157706474, 1503.76492237126, 53.5228, 53.5228, 53.5228, 153326.236346172, -1981.73846657872, -1278.6456979832, -2920.99406102429, -1745.57564072865, -49721.0796888181, 8.77946431192305e-06, ]
  - [236300, -47666.9666541709, 2258.53657173698, -45408.4300824339, 1498.13935566576, 53.5228, 53.5228, 53.5228, 153326.236346172, -1233.86487195154, -790.343402563057, -2087.49600286881, -823.755210422751, -49708.3772884183, 7.70989937016554e-06, ]
  - [236400, -47659.6489536559, 2259.34072891164, -45400.3082247442, 1498.6727716514, 53.5228, 53.5228, 53.5228, 153326.236346172, -13.1748554225453, 313.665730717491, -198.989476109003, -154.200820876121, -49678.6821209656, 6.74592470306788e-06, ]
  - [236500, -47630.4965749365, 2239.90338673108, -45390.5931882054, 1485.77953465243, 53.5228, 53.5228, 53.5228, 153326.236346172, 2123.61795033684, 1961.44337388855, 1837.00216593589, 2572.40831118607, -49671.2134527186, 5.87972408415909e-06, ]
  - [236600, -47648.9242497544, 2279.0179603706, -45369.9062893838, 1511.72513273694, 53.5228, 53.5228, 53.5228, 153326.236346172, 1240.20942626055, 1827.63786399505, 297.823246145221, 1595.16716864138, -49697.1191609612, 5.10384990346715e-06, ]
  - [236700, -47663.0404370947, 2270.71519900351, -45392.3252380912, 1506.21771978627, 53.5228, 53.5228, 53.5228, 153326.236346172, -277.824786221332, -49.3406738166262, -508.037065009174, -276.096619838192, -49669.5516876741, 4.41121716031669e-06, ]
  - [236800, -47661.0195473379, 2249.56697072372, -45411.4525766142, 1492.18961261058, 53.5228, 53.5228, 53.5228, 153326.236346172, -796.650177460961, -1206.87450078543, -1036.42368984882, -146.652341748622, -49709.9559934085, 3.79509724138197e-06, ]
  - [236900, -47659.5296860291, 2252.0081820805, -45407.5215039486, 1493.80892436087, 53.5228, 53.5228, 53.5228, 153326.236346172, 58.4535221973659, 356.986043566007, -964.322060864455, 782.696583890546, -49692.7334881406, 3.24911148169665e-06, ]
  - [237000, -47663.4917080979, 2281.17973444593, -45382.311973652, 1513.15908729886, 53.5228, 53.5228, 53.5228, 153326.236346172, -1471.39948838176, -578.270292660231, -1891.17651313417, -1944.75165935087, -49692.9599310311, 2.76722450630996e-06, ]
  - [237100, -47647.6200106923, 2259.75618066409, -45387.8638300282, 1498.94835037282, 53.5228, 53.5228, 53.5228, 153326.236346172, 596.762160486297, -531.951226992603, 1446.12612326109, 876.111585190419, -49680.5404321979, 2.34373735026696e-06, ]
  - [237200, -47663.5378866026, 2265.81916396916, -45397.7187226334, 1502.9700669196, 53.5228, 53.5228, 53.5228, 153326.236346172, -209.951461641049, -697.648967002728, 793.980763566897, -726.186181487309, -49679.4732527224, 1.97328035457889e-06, ]
  - [237300, -47656.2443294087, 2245.27139783018, -45410.9729315785, 1489.34026011946, 53.5228, 53.5228, 53.5228, 153326.236346172, -723.382614269061, -958.454646204682, -241.70020021137, -969.992996391131, -49706.5341470616, 1.65080583583743e-06, ]
  - [237400, -47667.4135226371, 2275.35782735663, -45392.0556952805, 1509.29728216156, 53.5228, 53.5228, 53.5228, 153326.236346172, -891.907304737516, -1376.63851083532, -457.787323300188, -841.296080077034, -49703.3457708399, 1.37158052711493e-06, ]
  - [237500, -47661.0203989596, 2262.73287356742, -45398.2875253922, 1500.92285937304, 53.5228, 53.5228, 53.5228, 153326.236346172, -910.460132195555, -2455.74808464439, -119.916340187411, -155.715971754858, -49747.4828568424, 1.13117778778074e-06, ]
  - [237600, -47654.4688493192, 2259.74670212061, -45394.7221471986, 1498.9420630365, 53.5228, 53.5228, 53.5228, 153326.236346172, -84.6175172415159, -523.496521600473, 328.280952128255, -58.6369822523266, -49758.8771030107, 9.25469579851505e-07, ]
  - [237700, -47656.3549397839, 2279.65098258613, -45376.7039571977, 1512.1450309604, 53.5228, 53.5228, 53.5228, 153326.236346172, 410.740644309114, -21.0629024215027, 246.991667339357, 1006.29316800949, -49793.8664208761, 7.50618208481688e-07, ]
  - [237800, -47654.0858414601, 2278.04536019938, -45376.0404812607, 1511.07998462995, 53.5228, 53.5228, 53.5228, 153326.236346172, -294.247991122137, -917.038147114128, 478.770110397297, -444.475936649577, -49850.3554127145, 6.03067824188189e-07, ]
  - [237900, -47670.1944881288, 2265.18198064399, -45405.0125074848, 1502.54740853623, 53.5228, 53.5228, 53.5228, 153326.236346172, -1010.32428183177, -408.208596671614, -1355.30051387733, -1267.46373494636, -49837.8168170684, 4.79535684391034e-07, ]
  - [238000, -47674.127653661, 2279.87647062476, -45394.2511830362, 1512.29460237276, 53.5228, 53.5228, 53.5228, 153326.236346172, -993.347512219006, -849.813758990712, -535.364363265051, -1594.86441440125, -49833.1948622909, 3.77003171839991e-07, ]
  - [238100, -47634.0061471309, 2259.3866412609, -45374.61950587, 1498.70322637071, 53.5228, 53.5228, 53.5228, 153326.236346172, 1707.8008796167, 1587.34881785499, 2094.55487855364, 1441.49894244147, -49802.7144823973, 2.92706567484834e-07, ]
  - [238200, -47657.097911384, 2249.0454878471, -45408.0524235369, 1491.84370100102, 53.5228, 53.5228, 53.5228, 153326.236346172, -542.833754666852, -852.510970735691, -1599.68596958898, 823.695676324119, -49773.9338756863, 2.24127575334843e-07, ]
  - [238300, -47659.6744187204, 2266.73509421693, -45392.9393245035, 1503.57762456042, 53.5228, 53.5228, 53.5228, 153326.236346172, -639.974680158936, -1739.36488380455, -1190.67513331842, 1010.11597664617, -49728.7206168675, 1.68983596840973e-07, ]
  - [238400, -47665.5544146272, 2284.344255325, -45381.2101593022, 1515.25818692385, 53.5228, 53.5228, 53.5228, 153326.236346172, -1165.5032197075, -225.074545921161, -1572.62286126447, -1698.81225193686, -49683.0657353438, 1.25217752321901e-07, ]
  - [238500, -47663.3418351959, 2253.57073011647, -45409.7711050794, 1494.84539848181, 53.5228, 53.5228, 53.5228, 153326.236346172, -588.144459363236, -1044.95197887785, -69.598004678895, -649.883394532957, -49692.158127806, 9.09886469429854e-08, ]
  - [238600, -47638.7823232142, 2257.61107836448, -45381.1712448497, 1497.52545458393, 53.5228, 53.5228, 53.5228, 153326.236346172, 2220.594745715, 600.994502784806, 3021.65571291049, 3039.1340214497, -49708.3142877809, 6.46598787448784e-08, ]
  - [238700, -47641.2278897122, 2258.42604777224, -45382.8018419399, 1498.06604257295, 53.5228, 53.5228, 53.5228, 153326.236346172, 1505.59993702667, 579.069331158188, 1494.05951925785, 2443.67096066396, -49703.7474643056, 4.47892862063161e-08, ]
  - [238800, -47673.8924520446, 2270.96936461839, -45402.9230874262, 1506.38631369583, 53.5228, 53.5228, 53.5228, 153326.236346172, -2493.97526328679, -1005.44008462356, -3386.98040223791, -3089.50530299891, -49739.4696227033, 3.01179328132691e-08, ]
  - [238900, -47682.7817179352, 2241.46387658449, -45441.3178413507, 1486.81464353345, 53.5228, 53.5228, 53.5228, 153326.236346172, -2975.89461962909, -3475.49226171111, -3030.46366039997, -2421.7279367762, -49693.8578344487, 1.95588260943479e-08, ]
  - [239000, -47661.1400523113, 2226.55711694961, -45434.5829353617, 1476.92664634362, 53.5228, 53.5228, 53.5228, 153326.236346172, -626.165448737603, -282.448057225085, -1559.42128567677, -36.6270033109486, -49671.3316034721, 1.21853685699994e-08, ]
  - [239100, -47661.4795190558, 2241.36558596761, -45420.1139330882, 1486.74944510218, 53.5228, 53.5228, 53.5228, 153326.236346172, -1537.43114967822, -172.523792620429, -2725.18943856338, -1714.58021785085, -49675.6472543597, 7.21953805066191e-09, ]
  - [239200, -47669.7639134049, 2239.2222588994, -45430.5416545055, 1485.32772686519, 53.5228, 53.5228, 53.5228, 153326.236346172, -2362.17192026004, -1704.79762085824, -2341.18148549677, -3040.5366544251, -49703.9465567831, 4.01979470665194e-09, ]
  - [239300, -47673.1501170116, 2269.82178911137, -45403.3283279002, 1505.62510041632, 53.5228, 53.5228, 53.5228, 153326.236346172, -896.509046639579, -1257.24300805181, -435.603390086543, -996.680741780392, -49695.2821421234, 2.06871232013228e-09, ]
  - [239400, -47656.9436901197, 2232.27646359456, -45424.6672265251, 1480.72042077469, 53.5228, 53.5228, 53.5228, 153326.236346172, -733.022392704069, 66.3713957451718, -460.04242260559, -1805.39615125179, -49725.0840897311, 9.60331117066315e-10, ]
  - [239500, -47641.9939612345, 2242.40564424555, -45399.5883169889, 1487.43933972592, 53.5228, 53.5228, 53.5228, 153326.236346172, 878.327394298047, 34.1181896421868, 251.951811546421, 2348.91218170553, -49722.714134335, 3.87229564589803e-10, ]
  - [239600, -47661.0170114702, 2266.31795221713, -45394.6990592531, 1503.30092465898, 53.5228, 53.5228, 53.5228, 153326.236346172, -1100.54189295012, -773.898667524131, -1753.43876398107, -774.288247345154, -49739.8962561395, 1.27312506734493e-10, ]
  - [239700, -47658.7801444461, 2239.13404227635, -45419.6461021698, 1485.26921074618, 53.5228, 53.5228, 53.5228, 153326.236346172, -738.827158589512, -1592.64474151763, -1225.70861507148, 601.871880820566, -49758.2878859094, 3.03129989146573e-11, ]
  - [239800, -47643.434022233, 2275.18750951985, -45368.2465127132, 1509.18430641548, 53.5228, 53.5228, 53.5228, 153326.236346172, 1712.98842561146, 1769.00334003121, 1857.856986083, 1512.10495072017, -49746.9932052144, 4.00518903939475e-12, ]
  - [239900, -47648.3281106992, 2238.38928279069, -45409.9388279086, 1484.77519461647, 53.5228, 53.5228, 53.5228, 153326.236346172, 515.525735218156, 322.719815222782, 771.253330224518, 452.604060207159, -49755.3092416109, 1.25580539685001e-13, ]
  - [240000, -47639.0818370746, 2264.19075244205, -45374.8910846326, 1501.88990402717, 53.5228, 53.5228, 53.5228, 153326.236346172, 1733.68289313845, 2389.75415857686, 38.1824668616781, 2773.1120539768, -49736.5299063763, 0, ]
...
Loop time of 130.175 on 64 procs for 100000 steps with 11664 atoms

Performance: 66.372 ns/day, 0.362 hours/ns, 768.196 timesteps/s, 8.960 Matom-step/s
72.0% CPU use with 64 MPI tasks x 1 OpenMP threads

MPI task timing breakdown:
Section |  min time  |  avg time  |  max time  |%varavg| %total
---------------------------------------------------------------
Pair    | 66.185     | 68.032     | 69.805     |   9.8 | 52.26
Neigh   | 0.58722    | 0.60323    | 0.65542    |   1.5 |  0.46
Comm    | 18.773     | 20.435     | 21.964     |  17.9 | 15.70
Output  | 0.3326     | 0.36979    | 0.37091    |   0.8 |  0.28
Modify  | 12.65      | 13.647     | 39.447     |  88.2 | 10.48
Other   |            | 27.09      |            |       | 20.81

Nlocal:         182.25 ave         191 max         173 min
Histogram: 2 3 7 11 4 14 9 6 2 6
Nghost:        1265.38 ave        1279 max        1254 min
Histogram: 4 4 9 3 15 11 10 4 2 2
Neighs:        7019.66 ave        7425 max        6590 min
Histogram: 3 1 6 16 6 11 6 5 4 6

Total # of neighbors = 449258
Ave neighs/atom = 38.516632
Neighbor list builds = 1597
Dangerous builds = 0
#------------------------------------------------------------------------------#
Total wall time: 0:05:02
