LAMMPS (2 Aug 2023)
OMP_NUM_THREADS environment is not set. Defaulting to 1 thread. (src/comm.cpp:98)
  using 1 OpenMP thread(s) per MPI task
#--------------------------- Simulation variables -----------------------------#
# Initalizes the random number generator.
variable RND equal round(random(0,999,${RANDOM}))
variable RND equal round(random(0,999,1))

# Simulation control parameters.
variable t_eq equal 20000 # Equilibration time.
variable t equal 100000 # Switching time.

#---------------------------- Atomic setup ------------------------------------#
units            metal
# Create atoms.
lattice          bcc ${a}
lattice          bcc 2.8840833333333333
Lattice spacing in x,y,z = 2.8840833 2.8840833 2.8840833
region           sim_box block 0 18 0 18 0 18
create_box       1 sim_box
Created orthogonal box = (0 0 0) to (51.9135 51.9135 51.9135)
  4 by 4 by 4 MPI processor grid
create_atoms     1 box
Created 11664 atoms
  using lattice units in orthogonal box = (0 0 0) to (51.9135 51.9135 51.9135)
  create_atoms CPU = 0.004 seconds

# Define interatomic potential.
pair_style       eam
pair_coeff       * * ../Fe.eam
#----------------------------- Run simulation ---------------------------------#
# Initial temperature to accelerate equilibration.
velocity all create ${T} ${RND} mom yes rot yes dist gaussian
velocity all create 100 ${RND} mom yes rot yes dist gaussian
velocity all create 100 80 mom yes rot yes dist gaussian

# Integrator, Frenkel-Ladd modifier, and thermostat.
fix fe all nve
fix fti all ti/spring ${k} ${t} ${t_eq} function 2
fix fti all ti/spring 5.783962722838734 ${t} ${t_eq} function 2
fix fti all ti/spring 5.783962722838734 100000 ${t_eq} function 2
fix fti all ti/spring 5.783962722838734 100000 20000 function 2
fix ft all langevin ${T} ${T} 0.1 ${RND} zero yes
fix ft all langevin 100 ${T} 0.1 ${RND} zero yes
fix ft all langevin 100 100 0.1 ${RND} zero yes
fix ft all langevin 100 100 0.1 178 zero yes
compute tcom all temp/com
fix_modify ft temp tcom

# Setup thermo output.
variable dE equal pe-f_fti
variable lambda equal f_fti[1]

thermo_style custom step pe ke etotal temp lx ly lz vol press pxx pyy pzz v_dE v_lambda
thermo 100
thermo_modify line yaml
thermo_modify flush yes

# Forward integration.
run ${t_eq}
run 20000

CITE-CITE-CITE-CITE-CITE-CITE-CITE-CITE-CITE-CITE-CITE-CITE-CITE

Your simulation uses code contributions which should be cited:

- ti/spring command: doi:10.1016/j.commatsci.2015.10.050

@article{freitas2016,
  author={Freitas, Rodrigo and Asta, Mark and de Koning, Maurice},
  title={Nonequilibrium Free-Energy Calculation of Solids Using {LAMMPS}},
  journal={Computational Materials Science},
  volume={112},
  pages={333--341},
  year={2016},
  publisher={Elsevier}
}

CITE-CITE-CITE-CITE-CITE-CITE-CITE-CITE-CITE-CITE-CITE-CITE-CITE

Neighbor list info ...
  update: every = 1 steps, delay = 0 steps, check = yes
  max neighbors/atom: 2000, page size: 100000
  master list distance cutoff = 6.409104
  ghost atom cutoff = 6.409104
  binsize = 3.204552, bins = 17 17 17
  1 neighbor lists, perpetual/occasional/extra = 1 0 0
  (1) pair eam, perpetual
      attributes: half, newton on
      pair build: half/bin/atomonly/newton
      stencil: half/bin/3d
      bin: standard
Per MPI rank memory allocation (min/avg/max) = 3.736 | 3.736 | 3.736 Mbytes
---
keywords: ['Step', 'PotEng', 'KinEng', 'TotEng', 'Temp', 'Lx', 'Ly', 'Lz', 'Volume', 'Press', 'Pxx', 'Pyy', 'Pzz', 'v_dE', 'v_lambda', ]
data:
  - [0, -50033.0424928456, 150.7561071135, -49882.2863857321, 100, 51.9135, 51.9135, 51.9135, 139907.478583785, -24670.5519268149, -24658.1009115611, -24678.4776770997, -24675.0771917839, -50033.0424928456, 0, ]
  - [100, -49925.4844651016, 126.001776823979, -49799.4826882776, 83.5798822591748, 51.9135, 51.9135, 51.9135, 139907.478583785, -4068.90646165506, -4189.9403868977, -3917.05844146921, -4099.72055659827, -49925.4844651016, 0, ]
  - [200, -49910.7048460313, 140.373131570396, -49770.3317144609, 93.1127330481627, 51.9135, 51.9135, 51.9135, 139907.478583785, -1360.51640087884, -1336.40239232718, -1415.23796730148, -1329.90884300785, -49910.7048460313, 0, ]
  - [300, -49904.7371720257, 148.117049105496, -49756.6201229202, 98.2494520065994, 51.9135, 51.9135, 51.9135, 139907.478583785, -258.99389492704, -274.424027302811, -249.468047008193, -253.089610470115, -49904.7371720257, 0, ]
  - [400, -49903.4170452691, 150.767772668744, -49752.6492726003, 100.007738031624, 51.9135, 51.9135, 51.9135, 139907.478583785, -20.2683130956243, -43.8412837185319, 66.2536650918913, -83.217320660232, -49903.4170452691, 0, ]
  - [500, -49903.8463616847, 149.653004382395, -49754.1933573023, 99.2682865376229, 51.9135, 51.9135, 51.9135, 139907.478583785, -130.946316326118, -34.3934844758512, -198.435347744275, -160.01011675823, -49903.8463616847, 0, ]
  - [600, -49901.5566475493, 151.432543906451, -49750.1241036428, 100.448696113148, 51.9135, 51.9135, 51.9135, 139907.478583785, 213.525624198362, 222.517790778469, 234.929696870543, 183.129384946074, -49901.5566475493, 0, ]
  - [700, -49901.9925990176, 150.121753056054, -49751.8708459616, 99.5792183351028, 51.9135, 51.9135, 51.9135, 139907.478583785, 263.258861577555, 305.68438031148, 221.740121111374, 262.352083309812, -49901.9925990176, 0, ]
  - [800, -49901.1781380706, 149.356432592674, -49751.8217054779, 99.0715636350492, 51.9135, 51.9135, 51.9135, 139907.478583785, 310.283177359472, 356.756685572553, 253.451194197117, 320.641652308747, -49901.1781380706, 0, ]
  - [900, -49901.2256819975, 149.92555894085, -49751.3001230566, 99.4490782572249, 51.9135, 51.9135, 51.9135, 139907.478583785, 334.913975115721, 343.319923293495, 309.105019855048, 352.31698219862, -49901.2256819975, 0, ]
  - [1000, -49903.1798638965, 152.549790444966, -49750.6300734515, 101.189791488922, 51.9135, 51.9135, 51.9135, 139907.478583785, 24.2205107028485, 0.155856476166079, -10.6465900758011, 83.152265708181, -49903.1798638965, 0, ]
  - [1100, -49902.8129065269, 152.378548084776, -49750.4343584421, 101.076202485154, 51.9135, 51.9135, 51.9135, 139907.478583785, 139.022881343365, 150.733422454812, 153.785966444649, 112.549255130635, -49902.8129065269, 0, ]
  - [1200, -49901.7330284635, 148.643334094543, -49753.0896943689, 98.5985489679919, 51.9135, 51.9135, 51.9135, 139907.478583785, 197.969588263904, 174.170225016229, 222.020196473097, 197.718343302386, -49901.7330284635, 0, ]
  - [1300, -49901.4121058732, 151.734302256748, -49749.6778036165, 100.648859380875, 51.9135, 51.9135, 51.9135, 139907.478583785, 349.85396698376, 339.096213393928, 308.108225365805, 402.357462191547, -49901.4121058732, 0, ]
  - [1400, -49904.6740184778, 149.875758059, -49754.7982604188, 99.4160441846396, 51.9135, 51.9135, 51.9135, 139907.478583785, -329.839777404512, -349.366858862949, -317.837802729938, -322.314670620648, -49904.6740184778, 0, ]
  - [1500, -49903.8661884844, 149.475017018031, -49754.3911714663, 99.1502234171489, 51.9135, 51.9135, 51.9135, 139907.478583785, -170.350316326509, -160.917566568346, -171.005155632439, -179.128226778743, -49903.8661884844, 0, ]
  - [1600, -49903.9767372293, 150.20511072208, -49753.7716265072, 99.6345113959427, 51.9135, 51.9135, 51.9135, 139907.478583785, -71.8360791908338, -76.4384381011051, -144.518782207584, 5.44898273618781, -49903.9767372293, 0, ]
  - [1700, -49904.0096078129, 150.326991733845, -49753.6826160791, 99.7153578797762, 51.9135, 51.9135, 51.9135, 139907.478583785, -132.450566084489, -208.92792083233, -100.484906314419, -87.9388711067186, -49904.0096078129, 0, ]
  - [1800, -49904.5527147073, 151.348298305075, -49753.2044164022, 100.392814064328, 51.9135, 51.9135, 51.9135, 139907.478583785, -228.174368406253, -175.948313426307, -272.367128714667, -236.207663077786, -49904.5527147073, 0, ]
  - [1900, -49904.3175209308, 151.451232837445, -49752.8662880933, 100.461092911759, 51.9135, 51.9135, 51.9135, 139907.478583785, -218.64802479044, -307.899280841302, -177.669697936082, -170.375095593937, -49904.3175209308, 0, ]
  - [2000, -49903.4323738534, 150.251168678233, -49753.1812051752, 99.665062699658, 51.9135, 51.9135, 51.9135, 139907.478583785, -66.4282432720028, -77.8694448838802, -101.622022311044, -19.7932626210841, -49903.4323738534, 0, ]
  - [2100, -49905.0542104205, 152.260031600588, -49752.7941788199, 100.997587769997, 51.9135, 51.9135, 51.9135, 139907.478583785, -370.980535999971, -361.831800174371, -411.263941248807, -339.845866576735, -49905.0542104205, 0, ]
  - [2200, -49904.1102629397, 150.504217279674, -49753.60604566, 99.8329156684603, 51.9135, 51.9135, 51.9135, 139907.478583785, -159.645854449327, -200.245820899391, -116.468501496758, -162.223240951831, -49904.1102629397, 0, ]
  - [2300, -49903.1987494107, 150.574329325061, -49752.6244200856, 99.879422603887, 51.9135, 51.9135, 51.9135, 139907.478583785, 2.83583119069927, 65.4473818154228, -19.5998753860964, -37.3400128572283, -49903.1987494107, 0, ]
  - [2400, -49904.7461089405, 149.343365640189, -49755.4027433003, 99.0628960243397, 51.9135, 51.9135, 51.9135, 139907.478583785, -286.337547517986, -425.1765083414, -225.882291455416, -207.953842757141, -49904.7461089405, 0, ]
  - [2500, -49903.0158981201, 150.699120684949, -49752.3167774351, 99.9621995886986, 51.9135, 51.9135, 51.9135, 139907.478583785, 35.0175927332054, -43.2165937500943, 44.4826675715853, 103.786704378125, -49903.0158981201, 0, ]
  - [2600, -49904.2904705116, 152.478856486344, -49751.8116140253, 101.142739359505, 51.9135, 51.9135, 51.9135, 139907.478583785, -173.876434217876, -221.754551577465, -211.177424670142, -88.6973264060216, -49904.2904705116, 0, ]
  - [2700, -49903.2371939124, 150.725948242641, -49752.5112456697, 99.9799949259526, 51.9135, 51.9135, 51.9135, 139907.478583785, -96.1993358011798, -54.0952494945779, -142.832643352595, -91.6701145563669, -49903.2371939124, 0, ]
  - [2800, -49902.9673410455, 149.453735883932, -49753.5136051616, 99.13610715048, 51.9135, 51.9135, 51.9135, 139907.478583785, -80.5944715845175, -25.0767145248948, -117.369721066449, -99.3369791622091, -49902.9673410455, 0, ]
  - [2900, -49903.7714633685, 150.040147586977, -49753.7313157815, 99.5250875468784, 51.9135, 51.9135, 51.9135, 139907.478583785, -154.765345552168, -184.142867114424, -110.375613786465, -169.777555755615, -49903.7714633685, 0, ]
  - [3000, -49902.2101596814, 148.913856702313, -49753.2963029791, 98.7779928478784, 51.9135, 51.9135, 51.9135, 139907.478583785, 88.9021075161103, 91.0503412446198, 101.442507397933, 74.2134739057788, -49902.2101596814, 0, ]
  - [3100, -49903.0731982978, 149.963605482171, -49753.1095928156, 99.4743154048598, 51.9135, 51.9135, 51.9135, 139907.478583785, -32.6024409685724, -44.8611090042737, -49.7969661070024, -3.14924779444145, -49903.0731982978, 0, ]
  - [3200, -49904.5167193174, 152.887328648145, -49751.6293906693, 101.413688357607, 51.9135, 51.9135, 51.9135, 139907.478583785, -219.735233509468, -245.099380502603, -127.076445559095, -287.029874466705, -49904.5167193174, 0, ]
  - [3300, -49903.6699906788, 150.673786195847, -49752.9962044829, 99.9453946382476, 51.9135, 51.9135, 51.9135, 139907.478583785, -162.653632754951, -151.029049064031, -175.94627494106, -160.98557425976, -49903.6699906788, 0, ]
  - [3400, -49902.1567457503, 152.359423847426, -49749.7973219029, 101.063516937804, 51.9135, 51.9135, 51.9135, 139907.478583785, 248.855482334438, 286.483081360542, 263.085292819754, 196.998072823018, -49902.1567457503, 0, ]
  - [3500, -49902.5680183706, 153.122087352838, -49749.4459310178, 101.569409216409, 51.9135, 51.9135, 51.9135, 139907.478583785, 162.162543241474, 99.049721638702, 169.830511471655, 217.607396614064, -49902.5680183706, 0, ]
  - [3600, -49903.6460753876, 151.3826337396, -49752.263441648, 100.415589549303, 51.9135, 51.9135, 51.9135, 139907.478583785, -44.4852782375236, -54.96339384197, -43.5686220984079, -34.9238187721929, -49903.6460753876, 0, ]
  - [3700, -49902.7349429495, 150.501495568012, -49752.2334473815, 99.8311102943932, 51.9135, 51.9135, 51.9135, 139907.478583785, 85.616686850788, 46.8190552864872, 65.1852404641675, 144.845764801709, -49902.7349429495, 0, ]
  - [3800, -49903.0771116551, 149.469184058112, -49753.607927597, 99.1463542804145, 51.9135, 51.9135, 51.9135, 139907.478583785, -60.2830851530866, -55.1847999110494, -98.875316506726, -26.7891390414841, -49903.0771116551, 0, ]
  - [3900, -49902.6609083288, 149.986981935182, -49752.6739263936, 99.4898215448487, 51.9135, 51.9135, 51.9135, 139907.478583785, 8.66914430944678, -8.15466505598744, -39.5255786314756, 73.6876766158037, -49902.6609083288, 0, ]
  - [4000, -49902.6293177606, 152.24832001773, -49750.3809977428, 100.989819207196, 51.9135, 51.9135, 51.9135, 139907.478583785, 31.0985937606046, -14.5486711475397, 11.7117959524448, 96.1326564769086, -49902.6293177606, 0, ]
  - [4100, -49903.7643031341, 150.963102733114, -49752.801200401, 100.137304964672, 51.9135, 51.9135, 51.9135, 139907.478583785, -147.192280015664, -217.589176809015, -87.2846747315802, -136.702988506396, -49903.7643031341, 0, ]
  - [4200, -49901.9022366727, 149.926631185234, -49751.9756054874, 99.4497895016346, 51.9135, 51.9135, 51.9135, 139907.478583785, 207.531269786552, 179.206054045966, 198.882522202545, 244.505233111145, -49901.9022366727, 0, ]
  - [4300, -49903.000061794, 150.769580410791, -49752.2304813832, 100.008937148583, 51.9135, 51.9135, 51.9135, 139907.478583785, 23.7466455603904, 8.44894968635402, -1.2003344513454, 63.9913214461629, -49903.000061794, 0, ]
  - [4400, -49903.5816001765, 150.433077249359, -49753.1485229272, 99.7857268469408, 51.9135, 51.9135, 51.9135, 139907.478583785, -7.39825898465313, 55.9790009282322, -20.4366894018841, -57.7370884803073, -49903.5816001765, 0, ]
  - [4500, -49903.0992423689, 150.033939202891, -49753.0653031661, 99.5209693826432, 51.9135, 51.9135, 51.9135, 139907.478583785, -0.508260905227556, 78.6419222538797, 32.5143626854562, -112.681067655019, -49903.0992423689, 0, ]
  - [4600, -49903.6938682709, 151.235988987849, -49752.457879283, 100.31831670606, 51.9135, 51.9135, 51.9135, 139907.478583785, -163.513099994025, -150.871577173122, -183.161007401733, -156.506715407221, -49903.6938682709, 0, ]
  - [4700, -49902.9549197236, 149.212933318095, -49753.7419864055, 98.976377259302, 51.9135, 51.9135, 51.9135, 139907.478583785, 35.6474075379349, 46.6701695636949, 20.9780886668123, 39.2939643832978, -49902.9549197236, 0, ]
  - [4800, -49902.1993400113, 152.251994049691, -49749.9473459616, 100.992256277263, 51.9135, 51.9135, 51.9135, 139907.478583785, 153.294940079847, 207.91953157194, 133.630533404908, 118.334755262693, -49902.1993400113, 0, ]
  - [4900, -49903.6692737604, 152.257831102435, -49751.411442658, 100.996128128862, 51.9135, 51.9135, 51.9135, 139907.478583785, -194.230191404098, -229.755840410166, -142.270494697048, -210.664239105081, -49903.6692737604, 0, ]
  - [5000, -49903.0740744288, 151.957045916373, -49751.1170285124, 100.796610383398, 51.9135, 51.9135, 51.9135, 139907.478583785, 6.25755710324761, 39.6816773039375, 39.6667783087098, -60.5757843029046, -49903.0740744288, 0, ]
  - [5100, -49901.8997104979, 149.915128477133, -49751.9845820208, 99.4421594902726, 51.9135, 51.9135, 51.9135, 139907.478583785, 217.151918351729, 201.925387469762, 257.39849694884, 192.131870636587, -49901.8997104979, 0, ]
  - [5200, -49903.0086221893, 152.843525871283, -49750.165096318, 101.384632966286, 51.9135, 51.9135, 51.9135, 139907.478583785, 30.9492457213714, 59.7701321387907, -23.2929449448561, 56.3705499701791, -49903.0086221893, 0, ]
  - [5300, -49903.3162349539, 151.007602034024, -49752.3086329199, 100.166822376446, 51.9135, 51.9135, 51.9135, 139907.478583785, -86.0539627155704, -137.21519438091, -55.4361556638939, -65.5105381019078, -49903.3162349539, 0, ]
  - [5400, -49903.546258929, 150.238118599854, -49753.3081403292, 99.656406281932, 51.9135, 51.9135, 51.9135, 139907.478583785, 25.9086317375296, -11.1331924318067, 59.1723984834966, 29.6866891608979, -49903.546258929, 0, ]
  - [5500, -49903.069601025, 150.173190845774, -49752.8964101792, 99.6133382064006, 51.9135, 51.9135, 51.9135, 139907.478583785, 3.10086243735687, -34.5387795323289, -36.7830918789972, 80.6244587233967, -49903.069601025, 0, ]
  - [5600, -49903.3533082578, 151.603113597267, -49751.7501946605, 100.561838919819, 51.9135, 51.9135, 51.9135, 139907.478583785, -24.0150971797613, 3.99272873169896, 78.8804327536574, -154.91845302464, -49903.3533082578, 0, ]
  - [5700, -49905.1902651763, 150.03370681032, -49755.156558366, 99.5208152312951, 51.9135, 51.9135, 51.9135, 139907.478583785, -325.930935271087, -262.7179181959, -318.353664143826, -396.721223473534, -49905.1902651763, 0, ]
  - [5800, -49904.2724931398, 150.518456941899, -49753.7540361979, 99.8423611645651, 51.9135, 51.9135, 51.9135, 139907.478583785, -108.259280453335, -167.083464890573, -12.0672489795324, -145.6271274899, -49904.2724931398, 0, ]
  - [5900, -49902.8640483654, 150.216457047422, -49752.647591318, 99.6420376750163, 51.9135, 51.9135, 51.9135, 139907.478583785, 47.7092122241582, 22.8443530582113, -19.4577251226118, 139.741008736876, -49902.8640483654, 0, ]
  - [6000, -49902.4669415262, 151.20633922321, -49751.260602303, 100.298649333901, 51.9135, 51.9135, 51.9135, 139907.478583785, 160.259130601791, 152.941334284897, 90.3952974683974, 237.440760052079, -49902.4669415262, 0, ]
  - [6100, -49900.7775693181, 151.483170365846, -49749.2943989523, 100.482277810343, 51.9135, 51.9135, 51.9135, 139907.478583785, 443.523449164488, 473.279417107397, 380.67485362912, 476.616076756946, -49900.7775693181, 0, ]
  - [6200, -49902.7899905567, 148.417271202482, -49754.3727193542, 98.4485962421031, 51.9135, 51.9135, 51.9135, 139907.478583785, 27.1194609475841, 71.6360360320322, 24.7994375675782, -15.0770907568584, -49902.7899905567, 0, ]
  - [6300, -49904.3705710727, 150.704042202271, -49753.6665288704, 99.9654641445536, 51.9135, 51.9135, 51.9135, 139907.478583785, -138.714465281778, -136.204938614214, -133.251896248924, -146.686560982194, -49904.3705710727, 0, ]
  - [6400, -49904.0634634811, 149.665927388356, -49754.3975360927, 99.2768586652854, 51.9135, 51.9135, 51.9135, 139907.478583785, -191.965775954976, -181.730573977193, -162.248209145765, -231.91854474197, -49904.0634634811, 0, ]
  - [6500, -49901.6308888735, 151.84808737286, -49749.7828015006, 100.724335670553, 51.9135, 51.9135, 51.9135, 139907.478583785, 250.425288010392, 201.87934096688, 324.083818897298, 225.312704166997, -49901.6308888735, 0, ]
  - [6600, -49900.5700748462, 151.434757192259, -49749.1353176539, 100.450164236629, 51.9135, 51.9135, 51.9135, 139907.478583785, 364.158285957329, 371.686728183829, 352.660442851091, 368.127686837065, -49900.5700748462, 0, ]
  - [6700, -49902.3626368117, 151.724342985291, -49750.6382938264, 100.642253166608, 51.9135, 51.9135, 51.9135, 139907.478583785, 65.8417869808806, 129.923359355942, 34.6784713742742, 32.9235302124259, -49902.3626368117, 0, ]
  - [6800, -49902.4790782017, 150.920573733912, -49751.5585044678, 100.109094499428, 51.9135, 51.9135, 51.9135, 139907.478583785, -0.598112338248597, -78.2763893722516, 64.5495514106211, 11.932500946885, -49902.4790782017, 0, ]
  - [6900, -49902.4592049232, 152.883657962468, -49749.5755469607, 101.411253507207, 51.9135, 51.9135, 51.9135, 139907.478583785, 83.6730273716905, 79.5355991283968, 105.703859356029, 65.7796236306462, -49902.4592049232, 0, ]
  - [7000, -49902.0634490363, 151.599474984336, -49750.4639740519, 100.55942534401, 51.9135, 51.9135, 51.9135, 139907.478583785, 327.586252661512, 307.439832555507, 280.188802133391, 395.130123295639, -49902.0634490363, 0, ]
  - [7100, -49903.053886545, 152.253303369039, -49750.800583176, 100.99312477896, 51.9135, 51.9135, 51.9135, 139907.478583785, 115.170080114549, 157.955727096177, 58.0679933624947, 129.486519884978, -49903.053886545, 0, ]
  - [7200, -49902.7506801822, 150.148201286077, -49752.6024788961, 99.5967620555727, 51.9135, 51.9135, 51.9135, 139907.478583785, 2.14919588154325, -48.1140936186683, -15.2993731284304, 69.8610543917292, -49902.7506801822, 0, ]
  - [7300, -49902.2314353441, 150.522288396246, -49751.7091469478, 99.8449026565284, 51.9135, 51.9135, 51.9135, 139907.478583785, 75.9959081804946, 97.2560757884415, 53.5785897974486, 77.1530589555946, -49902.2314353441, 0, ]
  - [7400, -49902.462630097, 150.992995131242, -49751.4696349658, 100.157133281216, 51.9135, 51.9135, 51.9135, 139907.478583785, 167.493477948665, 126.203465015603, 211.015715561829, 165.261253268563, -49902.462630097, 0, ]
  - [7500, -49903.4197975627, 151.013557569488, -49752.4062399932, 100.170772820364, 51.9135, 51.9135, 51.9135, 139907.478583785, -29.9245160263974, -52.7955704502305, -87.6818887644895, 50.7039111355277, -49903.4197975627, 0, ]
  - [7600, -49903.3134503926, 149.926907089942, -49753.3865433027, 99.4499725155851, 51.9135, 51.9135, 51.9135, 139907.478583785, 66.1073399794688, 78.0203009353701, 82.6129577125132, 37.6887612905227, -49903.3134503926, 0, ]
  - [7700, -49903.2995206919, 152.309693408381, -49750.9898272835, 101.030529591555, 51.9135, 51.9135, 51.9135, 139907.478583785, -77.7357582252947, -78.2820834460928, -87.5821228732983, -67.3430683564929, -49903.2995206919, 0, ]
  - [7800, -49902.7239080099, 153.627439423274, -49749.0964685866, 101.90462089049, 51.9135, 51.9135, 51.9135, 139907.478583785, 123.445338266552, 163.011513055151, 55.4529112977138, 151.871590446792, -49902.7239080099, 0, ]
  - [7900, -49904.0394464901, 150.390323659185, -49753.6491228309, 99.7573674053287, 51.9135, 51.9135, 51.9135, 139907.478583785, -136.63001580877, -95.3661068340283, -171.383917035164, -143.140023557118, -49904.0394464901, 0, ]
  - [8000, -49903.1124067795, 151.046861279731, -49752.0655454997, 100.192863938847, 51.9135, 51.9135, 51.9135, 139907.478583785, -32.8719550388045, 81.1869711873214, -105.576119485145, -74.2267168185905, -49903.1124067795, 0, ]
  - [8100, -49902.3658755149, 150.251071621544, -49752.1148038934, 99.6649983197191, 51.9135, 51.9135, 51.9135, 139907.478583785, 113.021605994883, 91.0813736371772, 151.001216060422, 96.9822282870514, -49902.3658755149, 0, ]
  - [8200, -49903.6232027036, 150.926126758229, -49752.6970759453, 100.112777948426, 51.9135, 51.9135, 51.9135, 139907.478583785, -110.046047782349, -37.076686019764, -117.397948758365, -175.663508568918, -49903.6232027036, 0, ]
  - [8300, -49903.227424335, 149.92267713727, -49753.3047471978, 99.447166690499, 51.9135, 51.9135, 51.9135, 139907.478583785, -38.1296538754196, 3.68334576156911, -67.5030156736984, -50.5692917141289, -49903.227424335, 0, ]
  - [8400, -49902.5621979232, 151.550370912235, -49751.011827011, 100.526853481389, 51.9135, 51.9135, 51.9135, 139907.478583785, 41.5120744372872, 59.0987592177388, 38.9175168603723, 26.5199472337508, -49902.5621979232, 0, ]
  - [8500, -49901.896988565, 151.400761339688, -49750.4962272253, 100.427614004189, 51.9135, 51.9135, 51.9135, 139907.478583785, 178.934668038567, 252.803358509116, 101.390165216251, 182.610480390334, -49901.896988565, 0, ]
  - [8600, -49902.8622582087, 149.364519566108, -49753.4977386426, 99.0769279108907, 51.9135, 51.9135, 51.9135, 139907.478583785, 85.8670078117703, 91.9493409261182, 94.5300627609547, 71.1216197482381, -49902.8622582087, 0, ]
  - [8700, -49901.6485267698, 150.472884227086, -49751.1756425427, 99.8121317326135, 51.9135, 51.9135, 51.9135, 139907.478583785, 230.969729948396, 244.725198006441, 229.224024774743, 218.959967064005, -49901.6485267698, 0, ]
  - [8800, -49901.5193946398, 150.888997868873, -49750.6303967709, 100.088149500486, 51.9135, 51.9135, 51.9135, 139907.478583785, 322.974181159913, 369.664173206536, 322.269846873672, 276.988523399531, -49901.5193946398, 0, ]
  - [8900, -49902.6958467084, 152.32083824044, -49750.3750084679, 101.037922215491, 51.9135, 51.9135, 51.9135, 139907.478583785, -23.3172333861439, -79.6398923517153, 18.5163368116349, -8.82814461835169, -49902.6958467084, 0, ]
  - [9000, -49902.163961581, 151.965346328042, -49750.198615253, 100.80211623774, 51.9135, 51.9135, 51.9135, 139907.478583785, 182.453205292243, 199.737320373171, 219.967384884184, 127.654910619373, -49902.163961581, 0, ]
  - [9100, -49904.1104442729, 151.448144063472, -49752.6623002095, 100.459044056803, 51.9135, 51.9135, 51.9135, 139907.478583785, -158.921706959514, -62.7354933866168, -198.696962764255, -215.332664727668, -49904.1104442729, 0, ]
  - [9200, -49901.6008635965, 149.683986548796, -49751.9168770477, 99.288837722576, 51.9135, 51.9135, 51.9135, 139907.478583785, 151.177860010677, 237.530611074224, 78.2769704877237, 137.725998470082, -49901.6008635965, 0, ]
  - [9300, -49903.0001412342, 152.276505878676, -49750.7236353555, 101.0085155383, 51.9135, 51.9135, 51.9135, 139907.478583785, -34.4332531454633, -17.6301351983154, -37.5727639492437, -48.0968602888309, -49903.0001412342, 0, ]
  - [9400, -49902.8092646097, 150.077491118736, -49752.731773491, 99.5498583720704, 51.9135, 51.9135, 51.9135, 139907.478583785, -2.44406867702781, -16.7327829234136, 12.0371111031275, -2.63653421079669, -49902.8092646097, 0, ]
  - [9500, -49902.5925708074, 151.003700002395, -49751.588870805, 100.164234068945, 51.9135, 51.9135, 51.9135, 139907.478583785, 29.435318129985, 81.9223378914777, -35.4141298901635, 41.7977463886412, -49902.5925708074, 0, ]
  - [9600, -49904.3842977822, 152.790440380818, -49751.5938574014, 101.349420137113, 51.9135, 51.9135, 51.9135, 139907.478583785, -243.963066167877, -232.517386522662, -199.598261278848, -299.773550702121, -49904.3842977822, 0, ]
  - [9700, -49902.7805501527, 149.348873453898, -49753.4316766988, 99.0665494840999, 51.9135, 51.9135, 51.9135, 139907.478583785, 28.2837173195937, -2.56550353157637, 10.7292833544013, 76.687372135957, -49902.7805501527, 0, ]
  - [9800, -49902.1436551287, 148.875769125746, -49753.267886003, 98.752728480619, 51.9135, 51.9135, 51.9135, 139907.478583785, 171.287729089857, 96.8004858940033, 261.619490577132, 155.443210798435, -49902.1436551287, 0, ]
  - [9900, -49902.7623019401, 152.696576253816, -49750.0657256863, 101.287157898588, 51.9135, 51.9135, 51.9135, 139907.478583785, 34.3595313892921, 47.6458765274241, 30.4633888282541, 24.9693288121981, -49902.7623019401, 0, ]
  - [10000, -49901.3258089934, 150.511685276595, -49750.8141237168, 99.8378693629168, 51.9135, 51.9135, 51.9135, 139907.478583785, 229.40116483915, 201.00228625495, 230.379177803635, 256.822030458866, -49901.3258089934, 0, ]
  - [10100, -49901.7967978342, 149.986537704061, -49751.8102601301, 99.489526876109, 51.9135, 51.9135, 51.9135, 139907.478583785, 190.661275576131, 201.41510167747, 190.721611523055, 179.84711352787, -49901.7967978342, 0, ]
  - [10200, -49902.6418912388, 150.568687730082, -49752.0732035087, 99.8756804039274, 51.9135, 51.9135, 51.9135, 139907.478583785, 97.0242927597511, 87.9796375763033, 85.9663231146614, 117.126917588289, -49902.6418912388, 0, ]
  - [10300, -49904.1030838251, 152.295007039851, -49751.8080767853, 101.020787784864, 51.9135, 51.9135, 51.9135, 139907.478583785, -164.953398557425, -188.278976674584, -114.501721870845, -192.079497126847, -49904.1030838251, 0, ]
  - [10400, -49902.347413838, 151.674462802779, -49750.6729510352, 100.609166492066, 51.9135, 51.9135, 51.9135, 139907.478583785, 45.7032012746376, 8.81728167863385, 90.7657195723003, 37.5266025729782, -49902.347413838, 0, ]
  - [10500, -49901.82527447, 152.14171914263, -49749.6835553274, 100.919108390141, 51.9135, 51.9135, 51.9135, 139907.478583785, 247.551556001762, 212.235759133291, 249.315235797325, 281.10367307467, -49901.82527447, 0, ]
  - [10600, -49902.5818229058, 149.191935305623, -49753.3898876001, 98.9624487937332, 51.9135, 51.9135, 51.9135, 139907.478583785, 56.4797919270814, 7.52085577904698, 45.6420552493849, 116.276464752812, -49902.5818229058, 0, ]
  - [10700, -49904.3007878965, 150.593823614173, -49753.7069642823, 99.8923536150978, 51.9135, 51.9135, 51.9135, 139907.478583785, -104.226342477946, -139.242001117529, -145.021061003056, -28.4159653132528, -49904.3007878965, 0, ]
  - [10800, -49902.1646101095, 150.006106603872, -49752.1585035056, 99.502507378316, 51.9135, 51.9135, 51.9135, 139907.478583785, 206.11380720561, 198.296043763863, 202.566887388524, 217.478490464443, -49902.1646101095, 0, ]
  - [10900, -49903.925807013, 148.641881818653, -49755.2839251944, 98.5975856399266, 51.9135, 51.9135, 51.9135, 139907.478583785, -171.105477537232, -128.374615637998, -141.320468097498, -243.621348876201, -49903.925807013, 0, ]
  - [11000, -49902.4759254525, 147.919417311617, -49754.5565081409, 98.1183582833252, 51.9135, 51.9135, 51.9135, 139907.478583785, 35.9890164039584, 0.918784083247558, 10.4400165674121, 96.6082485612151, -49902.4759254525, 0, ]
  - [11100, -49903.127227563, 148.174837469121, -49754.9523900939, 98.287784359916, 51.9135, 51.9135, 51.9135, 139907.478583785, 21.1078329557654, -55.7206989199729, 130.068018354561, -11.0238205672922, -49903.127227563, 0, ]
  - [11200, -49903.3165025047, 149.46863392841, -49753.8478685763, 99.1459893667053, 51.9135, 51.9135, 51.9135, 139907.478583785, -20.1210143366138, -88.0014103348078, 65.3595146678598, -37.7211473428937, -49903.3165025047, 0, ]
  - [11300, -49901.9620434678, 148.428802212197, -49753.5332412556, 98.4562450265772, 51.9135, 51.9135, 51.9135, 139907.478583785, 183.537140717833, 197.376411490792, 158.315945425187, 194.919065237521, -49901.9620434678, 0, ]
  - [11400, -49901.6919429345, 150.85604248851, -49750.835900446, 100.06628943724, 51.9135, 51.9135, 51.9135, 139907.478583785, 242.384200431415, 251.186267346945, 255.78394549808, 220.18238844922, -49901.6919429345, 0, ]
  - [11500, -49903.3179627476, 152.122760276113, -49751.1952024715, 100.906532537076, 51.9135, 51.9135, 51.9135, 139907.478583785, -26.9644729495213, 13.9716053497608, -35.4211652360478, -59.4438589622769, -49903.3179627476, 0, ]
  - [11600, -49900.5608136444, 149.101443480029, -49751.4593701644, 98.9024234804462, 51.9135, 51.9135, 51.9135, 139907.478583785, 431.171394101764, 479.604069951598, 421.174246403325, 392.735865950368, -49900.5608136444, 0, ]
  - [11700, -49903.3256543756, 151.635477660204, -49751.6901767154, 100.58330674859, 51.9135, 51.9135, 51.9135, 139907.478583785, -98.451467618693, -60.7897685788234, -62.7899227336742, -171.774711543581, -49903.3256543756, 0, ]
  - [11800, -49903.6135203303, 150.738339245514, -49752.8751810847, 99.9882141637071, 51.9135, 51.9135, 51.9135, 139907.478583785, -6.22762036893839, 19.8900938163427, 13.673170432898, -52.246125356056, -49903.6135203303, 0, ]
  - [11900, -49902.676909752, 149.774382675456, -49752.9025270765, 99.3487995565549, 51.9135, 51.9135, 51.9135, 139907.478583785, 137.601951357348, 94.3321809478257, 156.545498863003, 161.928174261217, -49902.676909752, 0, ]
  - [12000, -49903.0957023768, 151.500341178163, -49751.5953611986, 100.493667605852, 51.9135, 51.9135, 51.9135, 139907.478583785, 38.6582190298209, 9.38926259461615, 53.8220379857212, 52.7633565091256, -49903.0957023768, 0, ]
  - [12100, -49904.3280503277, 150.37044496553, -49753.9576053622, 99.744181409726, 51.9135, 51.9135, 51.9135, 139907.478583785, -234.70840352657, -254.415490121383, -196.280769811452, -253.428950646874, -49904.3280503277, 0, ]
  - [12200, -49903.135375484, 149.396757433316, -49753.7386180507, 99.0983120311266, 51.9135, 51.9135, 51.9135, 139907.478583785, -33.1408686782324, -57.3772130644236, -68.2914148070381, 26.246021836764, -49903.135375484, 0, ]
  - [12300, -49902.240671, 150.143960951999, -49752.096710048, 99.593949344261, 51.9135, 51.9135, 51.9135, 139907.478583785, 173.971788321063, 152.191784964524, 213.922961562087, 155.800618436577, -49902.240671, 0, ]
  - [12400, -49902.63281709, 149.679731775507, -49752.9530853145, 99.2860154334028, 51.9135, 51.9135, 51.9135, 139907.478583785, 87.0621907463155, 16.48617308598, 160.87365127377, 83.8267478791961, -49902.63281709, 0, ]
  - [12500, -49905.5552481027, 149.926043302958, -49755.6292047997, 99.4493995457732, 51.9135, 51.9135, 51.9135, 139907.478583785, -317.024899781284, -349.835261456768, -278.419487107807, -322.819950779278, -49905.5552481027, 0, ]
  - [12600, -49905.100912444, 150.587335293502, -49754.5135771505, 99.8880497624745, 51.9135, 51.9135, 51.9135, 139907.478583785, -340.468495801995, -363.719696428931, -304.712304982235, -352.973485994819, -49905.100912444, 0, ]
  - [12700, -49903.6915746894, 150.313170706058, -49753.3784039834, 99.7061900735412, 51.9135, 51.9135, 51.9135, 139907.478583785, -107.68180049507, -45.6766352344995, -82.5117239847764, -194.857042265934, -49903.6915746894, 0, ]
  - [12800, -49901.6328349615, 148.102702531032, -49753.5301324305, 98.2399355931432, 51.9135, 51.9135, 51.9135, 139907.478583785, 293.836128386774, 215.900363528917, 387.169555494096, 278.438466137308, -49901.6328349615, 0, ]
  - [12900, -49903.3098423461, 150.796016258737, -49752.5138260873, 100.026472655736, 51.9135, 51.9135, 51.9135, 139907.478583785, -73.2228986618427, -24.6785383618777, -60.3115108529277, -134.678646770723, -49903.3098423461, 0, ]
  - [13000, -49904.82652085, 149.887117618295, -49754.9394032317, 99.4235792420993, 51.9135, 51.9135, 51.9135, 139907.478583785, -257.455564815102, -160.637020632869, -325.849852442457, -285.879821369979, -49904.82652085, 0, ]
  - [13100, -49903.0157714686, 148.904291811524, -49754.111479657, 98.7716482353969, 51.9135, 51.9135, 51.9135, 139907.478583785, 89.6102750559566, 48.6910312191934, 116.045648888603, 104.094145060073, -49903.0157714686, 0, ]
  - [13200, -49903.7416786637, 147.55334200653, -49756.1883366572, 97.8755320973107, 51.9135, 51.9135, 51.9135, 139907.478583785, -95.2660207891987, -60.6000192651279, -102.159161525266, -123.038881577203, -49903.7416786637, 0, ]
  - [13300, -49902.9394902216, 150.451245115201, -49752.4882451064, 99.79777801103, 51.9135, 51.9135, 51.9135, 139907.478583785, 103.258243704413, 127.951962580777, 186.084080728551, -4.26131219608861, -49902.9394902216, 0, ]
  - [13400, -49904.1965739164, 152.111710374056, -49752.0848635424, 100.899202882398, 51.9135, 51.9135, 51.9135, 139907.478583785, -169.249958715545, -131.834983264811, -114.700289170501, -261.214603711325, -49904.1965739164, 0, ]
  - [13500, -49901.1518634494, 150.539430377207, -49750.6124330722, 99.8562733275342, 51.9135, 51.9135, 51.9135, 139907.478583785, 329.745918497828, 265.946789823792, 356.339186265114, 366.951779404579, -49901.1518634494, 0, ]
  - [13600, -49903.8373862638, 152.133592900583, -49751.7037933632, 100.913718066523, 51.9135, 51.9135, 51.9135, 139907.478583785, -61.0902686862502, -48.8876656250095, -7.75946668921701, -126.623673744524, -49903.8373862638, 0, ]
  - [13700, -49902.9908619433, 150.52971428129, -49752.461147662, 99.8498284172067, 51.9135, 51.9135, 51.9135, 139907.478583785, -35.0811505604691, 80.9804129281489, -80.7249963444154, -105.498868265141, -49902.9908619433, 0, ]
  - [13800, -49904.3562219625, 148.939071120587, -49755.4171508419, 98.7947181525818, 51.9135, 51.9135, 51.9135, 139907.478583785, -214.140595024669, -251.262596973343, -211.056591013731, -180.102597086932, -49904.3562219625, 0, ]
  - [13900, -49905.6868351081, 149.396487604224, -49756.2903475039, 99.0981330472718, 51.9135, 51.9135, 51.9135, 139907.478583785, -566.623148818819, -545.982121503483, -522.271438754576, -631.615886198395, -49905.6868351081, 0, ]
  - [14000, -49904.075259011, 149.987182830389, -49754.0880761806, 99.4899548032688, 51.9135, 51.9135, 51.9135, 139907.478583785, -210.291589927115, -140.129078196229, -236.721341843867, -254.024349741248, -49904.075259011, 0, ]
  - [14100, -49901.8868906759, 149.214872132547, -49752.6720185433, 98.9776633196076, 51.9135, 51.9135, 51.9135, 139907.478583785, 230.010354591337, 167.037486860282, 264.321186877931, 258.672390035798, -49901.8868906759, 0, ]
  - [14200, -49903.1162927989, 148.561062496822, -49754.5552303021, 98.5439763212876, 51.9135, 51.9135, 51.9135, 139907.478583785, -10.9628569778063, -64.8259934242265, -47.9471182801989, 79.8845407710067, -49903.1162927989, 0, ]
  - [14300, -49904.6921575213, 150.992609037004, -49753.6995484843, 100.156877176011, 51.9135, 51.9135, 51.9135, 139907.478583785, -281.84468120734, -260.635634285018, -302.098329241396, -282.800080095605, -49904.6921575213, 0, ]
  - [14400, -49902.6045658124, 152.774305290298, -49749.8302605221, 101.338717359741, 51.9135, 51.9135, 51.9135, 139907.478583785, 91.5255444893131, 15.2086874412235, 105.763350627315, 153.604595399401, -49902.6045658124, 0, ]
  - [14500, -49902.6489404649, 151.466557077795, -49751.1823833872, 100.471257833528, 51.9135, 51.9135, 51.9135, 139907.478583785, 148.206801666286, 64.9544169083827, 232.412234271527, 147.25375381895, -49902.6489404649, 0, ]
  - [14600, -49903.4643798809, 150.696513808079, -49752.7678660729, 99.9604703871954, 51.9135, 51.9135, 51.9135, 139907.478583785, -55.9000255316172, -91.8138974369958, -67.5219548242443, -8.36422433361138, -49903.4643798809, 0, ]
  - [14700, -49903.1796221509, 151.222606056582, -49751.9570160943, 100.309439499343, 51.9135, 51.9135, 51.9135, 139907.478583785, 18.1101656474481, 13.4722275687273, 5.28592096835237, 35.5723484052645, -49903.1796221509, 0, ]
  - [14800, -49904.5284207798, 150.968725446669, -49753.5596953331, 100.141034640148, 51.9135, 51.9135, 51.9135, 139907.478583785, -251.101033196723, -309.424151560548, -214.856003811479, -229.022944218143, -49904.5284207798, 0, ]
  - [14900, -49902.4639909211, 150.325057011279, -49752.1389339098, 99.7140745337128, 51.9135, 51.9135, 51.9135, 139907.478583785, 218.001836882264, 182.318259954766, 260.878717743205, 210.808532948821, -49902.4639909211, 0, ]
  - [15000, -49903.4122124455, 150.428387317763, -49752.9838251277, 99.782615907235, 51.9135, 51.9135, 51.9135, 139907.478583785, 69.8119194387815, 110.747005789826, 38.7346887428979, 59.9540637836206, -49903.4122124455, 0, ]
  - [15100, -49904.9210843396, 148.887162679961, -49756.0339216596, 98.7602860876924, 51.9135, 51.9135, 51.9135, 139907.478583785, -283.184475281421, -223.248468540331, -325.193265779293, -301.111691524641, -49904.9210843396, 0, ]
  - [15200, -49902.320226363, 148.372034945884, -49753.9481914171, 98.4185899906392, 51.9135, 51.9135, 51.9135, 139907.478583785, 139.291079744505, 176.05809724982, 180.964400326814, 60.8507416568815, -49902.320226363, 0, ]
  - [15300, -49904.4816365605, 149.768415703457, -49754.713220857, 99.3448415265195, 51.9135, 51.9135, 51.9135, 139907.478583785, -259.667698498591, -156.752700557557, -291.897000617869, -330.353394320348, -49904.4816365605, 0, ]
  - [15400, -49902.7653992498, 150.219728312766, -49752.545670937, 99.6442075807052, 51.9135, 51.9135, 51.9135, 139907.478583785, 83.6021192056076, 106.507212873675, 74.7791186653383, 69.5200260778098, -49902.7653992498, 0, ]
  - [15500, -49902.8371680567, 151.759420562852, -49751.0777474939, 100.665520932161, 51.9135, 51.9135, 51.9135, 139907.478583785, 50.5673893201046, 59.6925231213579, 26.138846319688, 65.8707985192683, -49902.8371680567, 0, ]
  - [15600, -49902.5988994998, 149.821977687597, -49752.7769218122, 99.3803704249278, 51.9135, 51.9135, 51.9135, 139907.478583785, 70.4902025133611, 42.9789579830133, 75.1643278814356, 93.3273216756344, -49902.5988994998, 0, ]
  - [15700, -49902.0748820231, 149.463281245532, -49752.6116007776, 99.1424388088007, 51.9135, 51.9135, 51.9135, 139907.478583785, 137.131905562138, 165.810586910937, 122.850126098207, 122.735003677269, -49902.0748820231, 0, ]
  - [15800, -49903.0550417038, 149.381387722813, -49753.673653981, 99.0881169479573, 51.9135, 51.9135, 51.9135, 139907.478583785, -47.790687883854, 31.9385611684692, -86.982700420135, -88.3279243998961, -49903.0550417038, 0, ]
  - [15900, -49905.0387900433, 149.693035294253, -49755.3457547491, 99.2948399639648, 51.9135, 51.9135, 51.9135, 139907.478583785, -437.427861467651, -426.070459984573, -433.748049404728, -452.465075013652, -49905.0387900433, 0, ]
  - [16000, -49905.3380630461, 150.01358488843, -49755.3244781577, 99.5074678967993, 51.9135, 51.9135, 51.9135, 139907.478583785, -352.743806766898, -301.333130581474, -434.415294862268, -322.482994856952, -49905.3380630461, 0, ]
  - [16100, -49902.1757369048, 151.318912569325, -49750.8568243354, 100.373321828615, 51.9135, 51.9135, 51.9135, 139907.478583785, 64.5598888331568, 63.0251486779922, 77.8781526081015, 52.7763652133768, -49902.1757369048, 0, ]
  - [16200, -49902.3499381571, 152.122682989007, -49750.2272551681, 100.906481270757, 51.9135, 51.9135, 51.9135, 139907.478583785, 98.9271883214184, 86.5257601974598, 136.086508968573, 74.1692957982229, -49902.3499381571, 0, ]
  - [16300, -49903.3388109755, 151.138814109681, -49752.1999968658, 100.253858369992, 51.9135, 51.9135, 51.9135, 139907.478583785, -40.6069226797576, 48.5017294174363, -13.76671216137, -156.555785295339, -49903.3388109755, 0, ]
  - [16400, -49904.2352745096, 151.380261940459, -49752.8550125692, 100.414016280275, 51.9135, 51.9135, 51.9135, 139907.478583785, -160.957091798122, -136.853957678712, -148.750527451354, -197.266790264298, -49904.2352745096, 0, ]
  - [16500, -49903.9503785902, 150.303675484274, -49753.6467031059, 99.699891674116, 51.9135, 51.9135, 51.9135, 139907.478583785, -110.879340720263, -31.7034150750136, -130.682918318008, -170.251688767767, -49903.9503785902, 0, ]
  - [16600, -49902.5489125239, 150.946300906354, -49751.6026116176, 100.126159925787, 51.9135, 51.9135, 51.9135, 139907.478583785, 14.0102179235243, -22.8992792606134, 31.3867407298608, 33.5431923013258, -49902.5489125239, 0, ]
  - [16700, -49904.8272443938, 150.996868553663, -49753.8303758401, 100.159702611571, 51.9135, 51.9135, 51.9135, 139907.478583785, -261.833079206531, -157.609502966792, -320.728355533139, -307.161379119662, -49904.8272443938, 0, ]
  - [16800, -49902.3812681493, 149.827836526949, -49752.5534316223, 99.3842567280861, 51.9135, 51.9135, 51.9135, 139907.478583785, 206.808399092956, 221.051936629881, 228.29609193387, 171.077168715117, -49902.3812681493, 0, ]
  - [16900, -49903.1623551111, 149.543202961884, -49753.6191521492, 99.1954527250411, 51.9135, 51.9135, 51.9135, 139907.478583785, 55.9843968970858, 14.9789319467202, 31.4242288798226, 121.550029864715, -49903.1623551111, 0, ]
  - [17000, -49902.9868476898, 151.347217178783, -49751.639630511, 100.392096928344, 51.9135, 51.9135, 51.9135, 139907.478583785, 64.0550210072949, -3.9401070931407, 150.670341433893, 45.4348286811316, -49902.9868476898, 0, ]
  - [17100, -49901.9485498852, 151.151638006255, -49750.796911879, 100.262364756114, 51.9135, 51.9135, 51.9135, 139907.478583785, 148.159931420023, 109.546604282125, 163.602313146033, 171.330876831911, -49901.9485498852, 0, ]
  - [17200, -49902.5732615122, 150.136044144184, -49752.4372173681, 99.5886979431958, 51.9135, 51.9135, 51.9135, 139907.478583785, 98.3324830956751, 156.12678372097, 95.4798301563194, 43.3908354097361, -49902.5732615122, 0, ]
  - [17300, -49902.4013074528, 149.82089367123, -49752.5804137815, 99.3796513718907, 51.9135, 51.9135, 51.9135, 139907.478583785, 89.7341920852376, 128.336128972755, 41.3558770684758, 99.5105702144814, -49902.4013074528, 0, ]
  - [17400, -49903.9441805394, 151.216684258922, -49752.7274962805, 100.305511434489, 51.9135, 51.9135, 51.9135, 139907.478583785, -104.345903979099, -139.214000219472, -132.137228865322, -41.6864828525037, -49903.9441805394, 0, ]
  - [17500, -49905.0552355051, 150.941203371121, -49754.114032134, 100.122778613195, 51.9135, 51.9135, 51.9135, 139907.478583785, -300.33990987523, -295.529314499143, -370.909709208185, -234.580705918363, -49905.0552355051, 0, ]
  - [17600, -49905.0693286041, 150.221246356488, -49754.8480822476, 99.6452145340889, 51.9135, 51.9135, 51.9135, 139907.478583785, -408.419331674478, -364.709740532977, -481.814020403301, -378.734234087155, -49905.0693286041, 0, ]
  - [17700, -49903.1842709534, 151.355133897707, -49751.8291370557, 100.397348270446, 51.9135, 51.9135, 51.9135, 139907.478583785, -44.7188642045689, -70.7844310271579, -10.4513190737935, -52.9208425127555, -49903.1842709534, 0, ]
  - [17800, -49902.2453883063, 149.842361372854, -49752.4030269335, 99.3938913930974, 51.9135, 51.9135, 51.9135, 139907.478583785, 240.115980213385, 339.123499375758, 169.864967295213, 211.359473969184, -49902.2453883063, 0, ]
  - [17900, -49903.9810853763, 150.802439334667, -49753.1786460417, 100.030733230019, 51.9135, 51.9135, 51.9135, 139907.478583785, -288.547510967773, -320.389737448363, -239.482838045565, -305.769957409392, -49903.9810853763, 0, ]
  - [18000, -49904.5705230971, 151.965443050378, -49752.6050800467, 100.802180395894, 51.9135, 51.9135, 51.9135, 139907.478583785, -290.911732296363, -350.3088248899, -234.520650083346, -287.905721915843, -49904.5705230971, 0, ]
  - [18100, -49903.6212835879, 150.754937105424, -49752.8663464825, 99.9992239066807, 51.9135, 51.9135, 51.9135, 139907.478583785, -173.571437906265, -198.340561341284, -169.890638266593, -152.483114110916, -49903.6212835879, 0, ]
  - [18200, -49902.511028947, 150.970082971443, -49751.5409459756, 100.141935117615, 51.9135, 51.9135, 51.9135, 139907.478583785, 223.122259498083, 186.940831758804, 323.77334054482, 158.652606190623, -49902.511028947, 0, ]
  - [18300, -49905.3584464896, 150.253419073089, -49755.1050274165, 99.666555438426, 51.9135, 51.9135, 51.9135, 139907.478583785, -312.079988431736, -304.84481483772, -244.344759505795, -387.050390951692, -49905.3584464896, 0, ]
  - [18400, -49903.4194676246, 150.264802606328, -49753.1546650183, 99.6741063983553, 51.9135, 51.9135, 51.9135, 139907.478583785, -54.4157931768196, -13.400368890507, -79.9701449708181, -69.8768656691336, -49903.4194676246, 0, ]
  - [18500, -49903.9197825266, 151.33739455294, -49752.5823879736, 100.385581354261, 51.9135, 51.9135, 51.9135, 139907.478583785, -62.077000837726, 1.46902701768471, -89.3064812299411, -98.3935483009216, -49903.9197825266, 0, ]
  - [18600, -49904.1984220812, 149.754164835082, -49754.4442572461, 99.3353885971177, 51.9135, 51.9135, 51.9135, 139907.478583785, -224.451366703105, -192.916805673378, -235.157419035466, -245.279875400471, -49904.1984220812, 0, ]
  - [18700, -49903.4384016459, 151.421081291786, -49752.0173203541, 100.441092696686, 51.9135, 51.9135, 51.9135, 139907.478583785, -31.0633094125516, -2.21539354480409, -36.0987556054617, -54.8757790873888, -49903.4384016459, 0, ]
  - [18800, -49901.7970501658, 150.220283767537, -49751.5767663983, 99.644576026655, 51.9135, 51.9135, 51.9135, 139907.478583785, 138.856262235207, 182.453789625975, 161.93550122701, 72.1794958526349, -49901.7970501658, 0, ]
  - [18900, -49901.0875492221, 150.70782533514, -49750.379723887, 99.9679735837678, 51.9135, 51.9135, 51.9135, 139907.478583785, 384.433521341248, 476.859465047477, 294.111011860299, 382.330087115968, -49901.0875492221, 0, ]
  - [19000, -49900.9710952785, 151.185875661051, -49749.7852196174, 100.285075381542, 51.9135, 51.9135, 51.9135, 139907.478583785, 401.555659137365, 476.044385430527, 333.600961755484, 395.021630226085, -49900.9710952785, 0, ]
  - [19100, -49902.1342881726, 151.40615185666, -49750.7281363159, 100.43118965832, 51.9135, 51.9135, 51.9135, 139907.478583785, 168.480624052607, 178.311199889976, 205.380019366397, 121.750652901449, -49902.1342881726, 0, ]
  - [19200, -49904.0707159792, 152.273362217849, -49751.7973537613, 101.006430275629, 51.9135, 51.9135, 51.9135, 139907.478583785, -130.245971745143, -133.13564535128, -99.570849781336, -158.031420102812, -49904.0707159792, 0, ]
  - [19300, -49901.3001821505, 149.631546382354, -49751.6686357681, 99.2540529516991, 51.9135, 51.9135, 51.9135, 139907.478583785, 272.360112595053, 306.844452327551, 228.740321801591, 281.495563656017, -49901.3001821505, 0, ]
  - [19400, -49900.9828107837, 148.553321934457, -49752.4294888492, 98.5388418278908, 51.9135, 51.9135, 51.9135, 139907.478583785, 209.741268137822, 236.713139772759, 166.217970963884, 226.292693676824, -49900.9828107837, 0, ]
  - [19500, -49902.9739005976, 151.779528847699, -49751.1943717499, 100.678859220893, 51.9135, 51.9135, 51.9135, 139907.478583785, -38.9219867366095, -30.5925307847647, -11.3279355812004, -74.845493843864, -49902.9739005976, 0, ]
  - [19600, -49901.9512533527, 151.669524431458, -49750.2817289213, 100.605890756565, 51.9135, 51.9135, 51.9135, 139907.478583785, 181.691136052449, 164.504350604373, 112.9724324585, 267.596625094473, -49901.9512533527, 0, ]
  - [19700, -49903.4150326346, 151.208066831433, -49752.2069658032, 100.299795296248, 51.9135, 51.9135, 51.9135, 139907.478583785, 4.99618172754898, -28.5254279943992, 76.4573521360763, -32.9433789590305, -49903.4150326346, 0, ]
  - [19800, -49902.4361417681, 150.636977749, -49751.7991640191, 99.920978747209, 51.9135, 51.9135, 51.9135, 139907.478583785, 153.408990568752, 103.815701890723, 179.710535634959, 176.700734180575, -49902.4361417681, 0, ]
  - [19900, -49902.6716897622, 150.328976447767, -49752.3427133144, 99.7166743862576, 51.9135, 51.9135, 51.9135, 139907.478583785, 56.4387010882675, -37.1110431231583, 108.185679117639, 98.2414672703219, -49902.6716897622, 0, ]
  - [20000, -49902.7398338413, 150.221178116734, -49752.5186557245, 99.6451692690877, 51.9135, 51.9135, 51.9135, 139907.478583785, 61.8454618136836, 73.4775646773914, 64.9911951493493, 47.06762561431, -50055.8219186544, 0, ]
...
Loop time of 78.7677 on 64 procs for 20000 steps with 11664 atoms

Performance: 21.938 ns/day, 1.094 hours/ns, 253.911 timesteps/s, 2.962 Matom-step/s
24.2% CPU use with 64 MPI tasks x 1 OpenMP threads

MPI task timing breakdown:
Section |  min time  |  avg time  |  max time  |%varavg| %total
---------------------------------------------------------------
Pair    | 31.524     | 32.878     | 33.927     |   9.0 | 41.74
Neigh   | 0          | 0          | 0          |   0.0 |  0.00
Comm    | 25.796     | 26.841     | 27.807     |   8.3 | 34.08
Output  | 0.1398     | 0.14487    | 0.21104    |   2.2 |  0.18
Modify  | 15.131     | 15.88      | 16.386     |   7.8 | 20.16
Other   |            | 3.024      |            |       |  3.84

Nlocal:         182.25 ave         189 max         180 min
Histogram: 48 0 0 0 0 0 0 0 0 16
Nghost:        1275.75 ave        1278 max        1269 min
Histogram: 16 0 0 0 0 0 0 0 0 48
Neighs:           8019 ave        8562 max        7734 min
Histogram: 16 32 0 0 0 0 0 0 0 16

Total # of neighbors = 513216
Ave neighs/atom = 44
Neighbor list builds = 0
Dangerous builds = 0
fix fpf all print 1 "${dE} ${lambda}" title "# dE [eV] lambda" screen no file data/forward_${T}K.dat
fix fpf all print 1 "${dE} ${lambda}" title "# dE [eV] lambda" screen no file data/forward_100K.dat
run ${t}
run 100000
Per MPI rank memory allocation (min/avg/max) = 3.736 | 3.736 | 3.736 Mbytes
---
keywords: ['Step', 'PotEng', 'KinEng', 'TotEng', 'Temp', 'Lx', 'Ly', 'Lz', 'Volume', 'Press', 'Pxx', 'Pyy', 'Pzz', 'v_dE', 'v_lambda', ]
data:
  - [20000, -49902.7398338413, 150.221178116734, -49752.5186557245, 99.6451692690877, 51.9135, 51.9135, 51.9135, 139907.478583785, 61.8454618136712, 73.4775646773818, 64.9911951493379, 47.0676256142936, -50055.8219186544, 0, ]
  - [20100, -49903.2127093451, 150.831661138541, -49752.3810482065, 100.050116725941, 51.9135, 51.9135, 51.9135, 139907.478583785, -11.8771222198174, -30.1667799148718, -7.54236995334668, 2.07778320876589, -50056.7605653864, 1.2558053968507e-13, ]
  - [20200, -49903.2019852845, 150.318709039845, -49752.8832762447, 99.7098637779727, 51.9135, 51.9135, 51.9135, 139907.478583785, -70.2553753419807, -82.4784579667853, -88.5997249087759, -39.6879431503806, -50054.8449038332, 4.00518903939584e-12, ]
  - [20300, -49904.5623787626, 151.605022396115, -49752.9573563665, 100.563105070083, 51.9135, 51.9135, 51.9135, 139907.478583785, -313.323973506122, -266.484341826943, -371.712108949713, -301.77546974171, -50056.392522127, 3.03129989146628e-11, ]
  - [20400, -49904.7235898889, 150.755060758646, -49753.9685291302, 99.9993059287123, 51.9135, 51.9135, 51.9135, 139907.478583785, -314.339716771352, -317.824278714756, -261.861318291935, -363.333553307366, -50052.7534015275, 1.2731250673451e-10, ]
  - [20500, -49902.4665607795, 150.195697378851, -49752.2708634007, 99.6282673084503, 51.9135, 51.9135, 51.9135, 139907.478583785, 122.659000087892, 154.440434811008, 97.8849834661389, 115.651581986529, -50051.9990734836, 3.87229564589844e-10, ]
  - [20600, -49903.1744785486, 151.659698525887, -49751.5147800227, 100.599373006964, 51.9135, 51.9135, 51.9135, 139907.478583785, -43.8188257533384, -17.371902299647, 0.787116459565946, -114.871691419934, -50053.9915847416, 9.60331117066399e-10, ]
  - [20700, -49903.2948873202, 151.009414186251, -49752.285473134, 100.168024418779, 51.9135, 51.9135, 51.9135, 139907.478583785, 52.2097250155796, 15.3900028536645, 109.58615248569, 31.653019707384, -50055.6095473209, 2.06871232013244e-09, ]
  - [20800, -49903.7017142196, 148.087212603384, -49755.6145016162, 98.2296607671707, 51.9135, 51.9135, 51.9135, 139907.478583785, -83.4184956661283, -107.339115064944, -33.8913039494381, -109.025067984002, -50055.8540607332, 4.0197947066522e-09, ]
  - [20900, -49902.9290114027, 150.000578643593, -49752.9284327591, 99.4988405548718, 51.9135, 51.9135, 51.9135, 139907.478583785, 83.8025031023986, 72.1460826948105, 60.102481870436, 119.158944741951, -50052.583124581, 7.21953805066232e-09, ]
  - [21000, -49903.471329154, 150.534664291557, -49752.9366648624, 99.8531118730892, 51.9135, 51.9135, 51.9135, 139907.478583785, -19.0826095381224, 2.51391618412351, -65.4036028013297, 5.64185800283895, -50054.9257558512, 1.218536857e-08, ]
  - [21100, -49901.8663846162, 153.417215988571, -49748.4491686277, 101.765174841685, 51.9135, 51.9135, 51.9135, 139907.478583785, 276.40827830853, 303.207430586533, 240.502646854115, 285.514757484941, -50056.8823899622, 1.95588260943488e-08, ]
  - [21200, -49903.2110661394, 151.081186052855, -49752.1298800866, 100.215632351869, 51.9135, 51.9135, 51.9135, 139907.478583785, 74.7772370233321, 131.648538432035, 53.0731494524683, 39.6100231854932, -50057.3712871359, 3.01179328132704e-08, ]
  - [21300, -49902.3282382593, 150.174521936175, -49752.1537163231, 99.6142211493384, 51.9135, 51.9135, 51.9135, 139907.478583785, 115.408124934921, 40.9315314487497, 165.395944888294, 139.896898467719, -50057.3141955795, 4.47892862063179e-08, ]
  - [21400, -49903.5317200372, 151.671560660786, -49751.8601593765, 100.607241434403, 51.9135, 51.9135, 51.9135, 139907.478583785, -33.8307767263933, -36.03266070613, -68.2159105513604, 2.75624107831064, -50055.3686060187, 6.46598787448807e-08, ]
  - [21500, -49902.8154542879, 149.211621834062, -49753.6038324539, 98.9755073217198, 51.9135, 51.9135, 51.9135, 139907.478583785, 9.34180332300703, 32.0015693113894, -12.1507660728132, 8.17460673044457, -50054.5695029192, 9.09886469429883e-08, ]
  - [21600, -49903.3679365191, 150.565731864517, -49752.8022046546, 99.8737197101811, 51.9135, 51.9135, 51.9135, 139907.478583785, -64.3204751601053, -52.534739341663, -31.5360511721449, -108.890634966507, -50051.1456258593, 1.25217752321905e-07, ]
  - [21700, -49903.087197838, 150.953737260219, -49752.1334605778, 100.131092630675, 51.9135, 51.9135, 51.9135, 139907.478583785, 12.577831144597, 59.1439389635944, -38.7100053071159, 17.2995597773124, -50050.8596029385, 1.68983596840977e-07, ]
  - [21800, -49903.5065503539, 151.411900722836, -49752.0946496311, 100.435003013737, 51.9135, 51.9135, 51.9135, 139907.478583785, -70.1462965343936, -116.932934491739, -87.1475457966223, -6.35840931481998, -50048.6903371008, 2.24127575334849e-07, ]
  - [21900, -49902.2396973966, 152.136741646477, -49750.1029557501, 100.915806702237, 51.9135, 51.9135, 51.9135, 139907.478583785, 164.531831028028, 131.822854425014, 157.91306937849, 203.85956928058, -50050.9898081354, 2.92706567484841e-07, ]
  - [22000, -49902.7756612847, 151.745297244523, -49751.0303640401, 100.656152609644, 51.9135, 51.9135, 51.9135, 139907.478583785, -94.1435760612543, 11.955640893056, -91.5505421834107, -202.835826893408, -50057.1965094897, 3.7700317184e-07, ]
  - [22100, -49902.9115551087, 152.915692287438, -49749.9958628212, 101.432502613186, 51.9135, 51.9135, 51.9135, 139907.478583785, 80.2592882927952, 164.88494453329, 97.9061757235222, -22.0132553784261, -50054.0416100704, 4.79535684391045e-07, ]
  - [22200, -49902.3619958766, 151.225576922678, -49751.1364189539, 100.311410143288, 51.9135, 51.9135, 51.9135, 139907.478583785, 131.70703245912, 212.277347002643, 130.122528676818, 52.7212216979007, -50054.0425385072, 6.03067824188202e-07, ]
  - [22300, -49903.5412156357, 148.370681548607, -49755.1705340871, 98.4176922510362, 51.9135, 51.9135, 51.9135, 139907.478583785, -87.7466219553175, -46.1070527819296, -90.5154048488918, -126.617408235131, -50051.5932224539, 7.50618208481703e-07, ]
  - [22400, -49903.9133625274, 150.329669169216, -49753.5836933581, 99.7171338843584, 51.9135, 51.9135, 51.9135, 139907.478583785, -135.991119888362, -151.55582695641, -152.904757414804, -103.512775293873, -50051.137521246, 9.25469579851522e-07, ]
  - [22500, -49904.9386949486, 152.308184012388, -49752.6305109362, 101.029528374409, 51.9135, 51.9135, 51.9135, 139907.478583785, -339.179771127718, -420.004571936315, -323.313907519109, -274.220833927731, -50052.2407136566, 1.13117778778076e-06, ]
  - [22600, -49903.3662581484, 151.27020810052, -49752.0960500479, 100.34101503207, 51.9135, 51.9135, 51.9135, 139907.478583785, -32.6643957663792, -80.5405095653826, -24.4247199337687, 6.97204220001305, -50049.3233436734, 1.37158052711496e-06, ]
  - [22700, -49906.2708235642, 151.92266734164, -49754.3481562226, 100.773806282529, 51.9135, 51.9135, 51.9135, 139907.478583785, -591.882737328781, -559.568441033633, -582.058354375842, -634.021416576867, -50049.1610803232, 1.65080583583745e-06, ]
  - [22800, -49901.846967448, 150.649526762016, -49751.1974406859, 99.9293027967326, 51.9135, 51.9135, 51.9135, 139907.478583785, 159.863380802693, 225.128381583389, 102.029603592382, 152.43215723231, -50051.3200501065, 1.97328035457892e-06, ]
  - [22900, -49904.5831347869, 151.815233745512, -49752.7679010414, 100.702543102426, 51.9135, 51.9135, 51.9135, 139907.478583785, -297.972703422784, -245.961002619072, -348.849219456276, -299.107888193003, -50052.5562141169, 2.343737350267e-06, ]
  - [23000, -49904.6401368618, 150.443112752002, -49754.1970241098, 99.7923836271105, 51.9135, 51.9135, 51.9135, 139907.478583785, -278.746985855512, -277.228333291992, -291.641846146695, -267.370778127848, -50052.7291930869, 2.76722450631e-06, ]
  - [23100, -49902.2328019711, 151.608197720128, -49750.624604251, 100.565211335675, 51.9135, 51.9135, 51.9135, 139907.478583785, 206.61349229956, 185.396786577749, 240.800782257668, 193.642908063263, -50056.4446746909, 3.2491114816967e-06, ]
  - [23200, -49903.6949950612, 150.001870975605, -49753.6931240856, 99.4996977884771, 51.9135, 51.9135, 51.9135, 139907.478583785, -217.812532488842, -320.200075131111, -169.558710991323, -163.678811344093, -50056.1882003017, 3.79509724138202e-06, ]
  - [23300, -49903.6054730989, 151.761290965571, -49751.8441821334, 100.666761613388, 51.9135, 51.9135, 51.9135, 139907.478583785, -194.915409195632, -182.296388331969, -204.249322111624, -198.200517143304, -50059.3170523922, 4.41121716031674e-06, ]
  - [23400, -49903.0267983844, 151.80187176396, -49751.2249266204, 100.693679792138, 51.9135, 51.9135, 51.9135, 139907.478583785, -94.9458233091173, -146.582421022366, -62.0528124913562, -76.2022364136294, -50059.1149830328, 5.10384990346721e-06, ]
  - [23500, -49903.0380946384, 152.143602392231, -49750.8944922462, 100.920357593, 51.9135, 51.9135, 51.9135, 139907.478583785, 69.7536394762581, 98.4590793999226, 53.2373914460019, 57.5644475828504, -50055.4154658682, 5.87972408415916e-06, ]
  - [23600, -49901.9542356598, 152.195886812872, -49749.7583488469, 100.955039054098, 51.9135, 51.9135, 51.9135, 139907.478583785, 222.44208098694, 242.882185480326, 190.317493968567, 234.126563511927, -50055.2036707792, 6.74592470306796e-06, ]
  - [23700, -49902.1294236816, 151.48676120986, -49750.6426624717, 100.484659699928, 51.9135, 51.9135, 51.9135, 139907.478583785, 231.419442532736, 260.341482975044, 222.786689283743, 211.130155339421, -50053.4462087355, 7.70989937016563e-06, ]
  - [23800, -49903.0295182652, 150.682614630537, -49752.3469036346, 99.9512507424272, 51.9135, 51.9135, 51.9135, 139907.478583785, -28.1207432540274, -8.0727564187818, -50.6442162724868, -25.6452570708134, -50054.3523200518, 8.77946431192315e-06, ]
  - [23900, -49903.1045481829, 151.528537117433, -49751.5760110655, 100.512370622141, 51.9135, 51.9135, 51.9135, 139907.478583785, 100.951852568868, 54.0880703595833, 136.054059230554, 112.713428116466, -50054.7637714322, 9.96281016605489e-06, ]
  - [24000, -49902.4663507972, 150.609737362137, -49751.8566134351, 99.9029095708523, 51.9135, 51.9135, 51.9135, 139907.478583785, 122.99280000342, 132.115639167752, 101.325157457503, 135.537603385004, -50053.4379256218, 1.126850756608e-05, ]
  - [24100, -49902.8425695454, 150.13491818459, -49752.7076513608, 99.5879510682497, 51.9135, 51.9135, 51.9135, 139907.478583785, 88.1467360110898, 60.8286449989179, 143.303217140843, 60.3083458935078, -50053.9384633585, 1.2705512517964e-05, ]
  - [24200, -49902.9896040969, 150.495828919127, -49752.4937751778, 99.8273514756012, 51.9135, 51.9135, 51.9135, 139907.478583785, -0.985793957996592, -81.2781534420507, 13.3133454126314, 65.0074261554299, -50052.3109428226, 1.42831715710919e-05, ]
  - [24300, -49902.8862001262, 151.06030288161, -49751.8258972445, 100.201780063132, 51.9135, 51.9135, 51.9135, 139907.478583785, 9.48590646325311, -17.6729403278372, 28.3231201702268, 17.8075395473703, -50054.4805661176, 1.60112267858132e-05, ]
  - [24400, -49903.1071491653, 149.916127919117, -49753.1910212462, 99.4428224431729, 51.9135, 51.9135, 51.9135, 139907.478583785, 13.1355770506658, 6.8909728092724, -26.7885097862519, 59.3042681289777, -50052.2824081684, 1.78998204997854e-05, ]
  - [24500, -49902.7496224008, 150.765578103076, -49751.9840442977, 100.006282325643, 51.9135, 51.9135, 51.9135, 139907.478583785, 74.0714664657941, 114.40618964635, 56.2689202607751, 51.5392894902568, -50051.9956305591, 1.99594998953344e-05, ]
  - [24600, -49904.2331890729, 151.921559821703, -49752.3116292512, 100.773071639032, 51.9135, 51.9135, 51.9135, 139907.478583785, -145.051561608566, -171.272859600251, -93.6122092820119, -170.269615943433, -50052.8839543093, 2.2201221370035e-05, ]
  - [24700, -49903.9509226626, 151.028466131703, -49752.9224565309, 100.180662013246, 51.9135, 51.9135, 51.9135, 139907.478583785, -136.052128668944, -128.200689338691, -134.223551685152, -145.732144982989, -50054.2673967454, 2.46363547127047e-05, ]
  - [24800, -49902.514594913, 150.654360947252, -49751.8602339657, 99.9325094232027, 51.9135, 51.9135, 51.9135, 139907.478583785, 94.2269070290745, 67.2240327907855, 36.389299202652, 179.067389093786, -50052.2176641585, 2.7276687086994e-05, ]
  - [24900, -49904.3231108986, 150.948938791042, -49753.3741721075, 100.127909695491, 51.9135, 51.9135, 51.9135, 139907.478583785, -226.064590579685, -266.236095397914, -239.543680196558, -172.413996144583, -50055.3119591787, 3.01344268247409e-05, ]
  - [25000, -49903.1337857149, 151.177606371233, -49751.9561793437, 100.27959017104, 51.9135, 51.9135, 51.9135, 139907.478583785, -14.7119269086633, -38.5509226715144, -11.5269692007125, 5.94211114623801, -50056.5683812241, 3.322220703125e-05, ]
  - [25100, -49902.0627991122, 152.097880019918, -49749.9649190923, 100.89002888978, 51.9135, 51.9135, 51.9135, 139907.478583785, 134.608539636219, 99.9046092103445, 152.848033813768, 151.072975884543, -50056.0640196268, 3.6553089004642e-05, ]
  - [25200, -49902.5203808604, 149.27872256405, -49753.2416582964, 99.020016782247, 51.9135, 51.9135, 51.9135, 139907.478583785, 115.833487601174, 169.479321057666, 48.1805358144055, 129.840605931449, -50053.3142594953, 4.01405654714096e-05, ]
  - [25300, -49904.3340381463, 151.360855339438, -49752.9731828068, 100.401143434596, 51.9135, 51.9135, 51.9135, 139907.478583785, -203.237489120538, -204.076970813528, -193.634307005226, -212.00118954286, -50052.1320639512, 4.39985636403039e-05, ]
  - [25400, -49904.7845141761, 150.272417831397, -49754.5120963447, 99.6791577526348, 51.9135, 51.9135, 51.9135, 139907.478583785, -347.613269484789, -268.680463386758, -345.75995716367, -428.39938790394, -50052.9789875402, 4.81414480766634e-05, ]
  - [25500, -49903.2827455256, 152.830450269272, -49750.4522952563, 101.375959618147, 51.9135, 51.9135, 51.9135, 139907.478583785, -51.3651806643509, -1.14628418380903, -119.833953958432, -33.1153038508109, -50054.2193286379, 5.25840233992879e-05, ]
  - [25600, -49903.3497804059, 152.733565125333, -49750.6162152806, 101.311693469468, 51.9135, 51.9135, 51.9135, 139907.478583785, -106.649573628086, -101.503201739768, -31.5593158752984, -186.886203269192, -50052.9481621932, 5.7341536801945e-05, ]
  - [25700, -49904.3159782172, 151.535214659217, -49752.780763558, 100.51679998949, 51.9135, 51.9135, 51.9135, 139907.478583785, -176.4378769018, -101.048839039454, -193.157159902153, -235.107631763794, -50055.4305908392, 6.24296804015908e-05, ]
  - [25800, -49903.0258191967, 153.659862073657, -49749.3659571231, 101.926127581665, 51.9135, 51.9135, 51.9135, 139907.478583785, 5.97347478446127, -6.87473016852682, 7.2023088232052, 17.5928456987051, -50058.6589005289, 6.78645934153687e-05, ]
  - [25900, -49904.0657417379, 149.475974795234, -49754.5897669426, 99.1508587328393, 51.9135, 51.9135, 51.9135, 139907.478583785, -82.3318015722697, -108.267424594014, -68.2194410596692, -70.5085390631252, -50056.6335033993, 7.36628641684442e-05, ]
  - [26000, -49905.1986125205, 149.673908999967, -49755.5247035205, 99.2821530522025, 51.9135, 51.9135, 51.9135, 139907.478583785, -417.201238668914, -493.094677614128, -332.357199042367, -426.151839350247, -50057.5790099265, 7.98415319347201e-05, ]
  - [26100, -49902.575172064, 151.551233888921, -49751.0239381751, 100.527425913713, 51.9135, 51.9135, 51.9135, 139907.478583785, 68.9092091744631, 42.8970692520769, 107.136626304628, 56.6939319666837, -50058.0171547737, 8.64180886124637e-05, ]
  - [26200, -49903.4437548747, 151.611793819502, -49751.8319610551, 100.567596711261, 51.9135, 51.9135, 51.9135, 139907.478583785, -61.6614753312035, -39.7046361262532, -41.8562440739723, -103.423545793384, -50058.9510778041, 9.34104802368714e-05, ]
  - [26300, -49903.5078903888, 151.177776266983, -49752.3301141218, 100.279702866807, 51.9135, 51.9135, 51.9135, 139907.478583785, -45.5150851595664, -73.7041211261122, -63.6097711029822, 0.768636750395813, -50056.7905058528, 0.000100837108331577, ]
  - [26400, -49904.7571998041, 149.012182478857, -49755.7450173252, 98.8432146013629, 51.9135, 51.9135, 51.9135, 139907.478583785, -300.057361954976, -216.822382889635, -312.165613676891, -371.184089298403, -50053.5938068489, 0.000108716831101108, ]
  - [26500, -49903.895851041, 148.784917872627, -49755.1109331684, 98.6924647507721, 51.9135, 51.9135, 51.9135, 139907.478583785, -157.059506349261, -190.550374354002, -160.174594724623, -120.453549969158, -50050.2705919183, 0.000117068964466276, ]
  - [26600, -49902.9934689365, 150.723112640844, -49752.2703562956, 99.9781140059347, 51.9135, 51.9135, 51.9135, 139907.478583785, 50.8582495937886, 22.2943796201986, 99.3779241219078, 30.9024450392594, -50055.3724143339, 0.000125913282944476, ]
  - [26700, -49902.4592091405, 153.240785036209, -49749.2184241042, 101.648144125159, 51.9135, 51.9135, 51.9135, 139907.478583785, 156.671029329992, 164.048038327935, 169.545447081869, 136.41960258017, -50053.3511274338, 0.000135270020376872, ]
  - [26800, -49900.7239196232, 152.89424330977, -49747.8296763135, 101.41827501201, 51.9135, 51.9135, 51.9135, 139907.478583785, 424.977220363619, 478.261403061472, 445.785397925726, 350.884860103659, -50050.8589511539, 0.000145159870504403, ]
  - [26900, -49903.4500761666, 151.428891598594, -49752.021184568, 100.44627345318, 51.9135, 51.9135, 51.9135, 139907.478583785, -134.231541872458, -126.001365176008, -158.974230243613, -117.719030197754, -50056.7275873119, 0.000155603987394582, ]
  - [27000, -49903.0449064428, 150.328487618979, -49752.7164188238, 99.7163501348579, 51.9135, 51.9135, 51.9135, 139907.478583785, -11.2059263771093, -51.5701586567772, 63.52178478544, -45.569405259991, -50054.6480069233, 0.00016662398572099, ]
  - [27100, -49901.2768479906, 150.200084146256, -49751.0767638443, 99.6311771523621, 51.9135, 51.9135, 51.9135, 139907.478583785, 274.633458474989, 285.650240675287, 262.701226369796, 275.548908379884, -50053.8738547385, 0.000178241940897419, ]
  - [27200, -49902.1033331134, 151.824323372665, -49750.2790097408, 100.708572461586, 51.9135, 51.9135, 51.9135, 139907.478583785, 205.717895417365, 178.852136591723, 249.97054880371, 188.331000856663, -50055.8443592465, 0.000190480389068545, ]
  - [27300, -49903.8432644925, 152.470059498396, -49751.3732049941, 101.136904114674, 51.9135, 51.9135, 51.9135, 139907.478583785, -12.8628454667144, -2.44422145701593, -23.1158089057671, -13.0285060373598, -50054.4785276639, 0.000203362326959055, ]
  - [27400, -49902.6562687375, 149.746831515481, -49752.909437222, 99.3305242372308, 51.9135, 51.9135, 51.9135, 139907.478583785, 33.0166169800046, 79.9314346157357, -5.83661386199807, 24.9550301862766, -50053.4371697882, 0.000216911211583103, ]
  - [27500, -49901.7154954768, 150.811768917785, -49750.9037265591, 100.0369217575, 51.9135, 51.9135, 51.9135, 139907.478583785, 286.719847998346, 325.948825616187, 216.64853662479, 317.562181754061, -50055.481235293, 0.000231150959815979, ]
  - [27600, -49903.9620188084, 149.719833539961, -49754.2421852684, 99.3126158579046, 51.9135, 51.9135, 51.9135, 139907.478583785, -105.744465717177, -138.496794560911, -119.166005983114, -59.5705966075062, -50053.5907875866, 0.00024610594782986, ]
  - [27700, -49904.0926791597, 150.228366137637, -49753.864313022, 99.6499372489992, 51.9135, 51.9135, 51.9135, 139907.478583785, -70.194882443775, -97.4148465001008, -76.2304882380461, -36.939312593178, -50054.1490183825, 0.000261801010395495, ]
  - [27800, -49901.7494348733, 150.775761250293, -49750.973673623, 100.013037041861, 51.9135, 51.9135, 51.9135, 139907.478583785, 237.962534372659, 228.311182973109, 243.961539570184, 241.614880574685, -50053.7574230657, 0.000278261440051671, ]
  - [27900, -49902.5380346557, 150.433168041435, -49752.1048666143, 99.7857870714175, 51.9135, 51.9135, 51.9135, 139907.478583785, -86.6689837531752, -110.752889121009, -111.909559446587, -37.3445026919297, -50053.3789225205, 0.000295512986144304, ]
  - [28000, -49902.3139418741, 150.676949552787, -49751.6369923213, 99.9474929658048, 51.9135, 51.9135, 51.9135, 139907.478583785, 39.8190894077897, -36.9276210565135, 71.1467640877571, 85.2381251921254, -50051.2809385683, 0.00031358185373696, ]
  - [28100, -49902.6073004816, 150.509956905901, -49752.0973435757, 99.8367228948052, 51.9135, 51.9135, 51.9135, 139907.478583785, 65.1724909443294, 118.065160387126, 41.9988528288295, 35.4534596170332, -50052.4663424374, 0.000332494702394641, ]
  - [28200, -49902.9695627323, 150.435388203575, -49752.5341745287, 99.7872597561284, 51.9135, 51.9135, 51.9135, 139907.478583785, 59.091422204234, 31.4072145904644, 84.3317921685766, 61.5352598536612, -50050.827064573, 0.000352278644842627, ]
  - [28300, -49903.7118989934, 150.581607215916, -49753.1302917775, 99.8842501966091, 51.9135, 51.9135, 51.9135, 139907.478583785, -164.740916461471, -83.4356502405489, -153.927973652974, -256.859125490891, -50052.9362356797, 0.000372961245502164, ]
  - [28400, -49900.6146169286, 150.177142229877, -49750.4374746987, 99.6159592505349, 51.9135, 51.9135, 51.9135, 139907.478583785, 420.808875990234, 477.819537082002, 391.435921350477, 393.171169538224, -50051.8804358527, 0.000394570518904788, ]
  - [28500, -49902.1620158568, 150.096872095449, -49752.0651437613, 99.5627142205561, 51.9135, 51.9135, 51.9135, 139907.478583785, 187.359155199516, 130.904978868554, 267.259295370406, 163.913191359587, -50052.6729877969, 0.000417134927987054, ]
  - [28600, -49903.8106547164, 150.874369270155, -49752.9362854463, 100.078446013842, 51.9135, 51.9135, 51.9135, 139907.478583785, -76.8432673634856, -47.9595485783117, -98.2403050504551, -84.3299484616901, -50050.6546393853, 0.000440683382267422, ]
  - [28700, -49901.3119857417, 149.842031765416, -49751.4699539763, 99.3936727568879, 51.9135, 51.9135, 51.9135, 139907.478583785, 218.983189515976, 225.390018936166, 192.684567963179, 238.874981648583, -50051.9371597044, 0.000465245235907057, ]
  - [28800, -49902.7792795539, 149.784074294846, -49752.9952052591, 99.3552282310383, 51.9135, 51.9135, 51.9135, 139907.478583785, 40.138013956506, 29.936104765954, 31.9863644781756, 58.4915726253891, -50054.8019648048, 0.000490850285656287, ]
  - [28900, -49902.4422492895, 152.06918180371, -49750.3730674858, 100.870992701623, 51.9135, 51.9135, 51.9135, 139907.478583785, 45.1601302251164, 21.167542187715, 119.521034129751, -5.20818564211707, -50053.8222816715, 0.000517528768688429, ]
  - [29000, -49903.6625883621, 152.499155969761, -49751.1634323924, 101.156204474654, 51.9135, 51.9135, 51.9135, 139907.478583785, -9.29403866695918, -8.41499200005434, -23.3162280046887, 3.8491040038658, -50050.1374601909, 0.00054531136032273, ]
  - [29100, -49902.8526948502, 150.119326707305, -49752.7333681429, 99.5776088820632, 51.9135, 51.9135, 51.9135, 139907.478583785, 87.8046349378988, 157.412108718012, 59.4577665235709, 46.5440295721139, -50053.4958838216, 0.000574229171638096, ]
  - [29200, -49905.1224089193, 151.943636814465, -49753.1787721049, 100.787715817092, 51.9135, 51.9135, 51.9135, 139907.478583785, -461.642851922894, -390.576226859987, -499.01123755584, -495.341091352855, -50056.7563798516, 0.000604313746979337, ]
  - [29300, -49902.2996899321, 151.261130528213, -49751.0385594039, 100.334993669167, 51.9135, 51.9135, 51.9135, 139907.478583785, 144.847968024643, 115.382929112704, 139.72166910524, 179.439305855983, -50057.8716552985, 0.000635597061357593, ]
  - [29400, -49903.1228113986, 150.297660281536, -49752.825151117, 99.6959016515209, 51.9135, 51.9135, 51.9135, 139907.478583785, -9.66340692402343, -68.4272211179259, 2.28467836787868, 37.152321977977, -50056.8672050279, 0.000668111517746635, ]
  - [29500, -49901.3490578255, 150.265419585092, -49751.0836382404, 99.6745156545876, 51.9135, 51.9135, 51.9135, 139907.478583785, 283.098244108363, 221.748203163068, 275.809571416857, 351.736957745165, -50055.4231921621, 0.000701889944276683, ]
  - [29600, -49903.5115098951, 152.700655593572, -49750.8108543015, 101.289863818656, 51.9135, 51.9135, 51.9135, 139907.478583785, -6.80946792708471, -41.9794205126005, 38.3992247402603, -16.8482080089139, -50052.3002355193, 0.000736965591327429, ]
  - [29700, -49903.963784727, 151.328491152575, -49752.6352935744, 100.379675523622, 51.9135, 51.9135, 51.9135, 139907.478583785, -212.821539118722, -149.342877478223, -259.772139958589, -229.349599919355, -50051.7325523735, 0.000773372128521878, ]
  - [29800, -49902.6719241642, 149.293615401746, -49753.3783087624, 99.0298955446943, 51.9135, 51.9135, 51.9135, 139907.478583785, 152.17783994609, 118.677232448236, 160.083098684955, 177.773188705081, -50052.087570019, 0.00081114364162266, ]
  - [29900, -49901.5304699669, 149.942951300962, -49751.5875186659, 99.4606150104913, 51.9135, 51.9135, 51.9135, 139907.478583785, 199.633760400606, 221.221061308737, 190.971619518461, 186.708600374619, -50052.7673536196, 0.000850314629332433, ]
  - [30000, -49901.8171283039, 150.764995360372, -49751.0521329435, 100.005895778978, 51.9135, 51.9135, 51.9135, 139907.478583785, 123.206340427211, 132.479259202891, 139.024405175423, 98.1153569033194, -50053.1395748227, 0.000890920000000001, ]
  - [30100, -49903.0100943765, 150.665818988368, -49752.3442753881, 99.9401098059237, 51.9135, 51.9135, 51.9135, 139907.478583785, 31.5271946936964, 96.2208003051651, -0.652098214604311, -0.987118009471977, -50054.1825671741, 0.000932995068233718, ]
  - [30200, -49902.4763594055, 150.430116722322, -49752.0462426832, 99.7837630611324, 51.9135, 51.9135, 51.9135, 139907.478583785, 70.0709733321312, 60.0427354656772, 50.9769039085406, 99.1932806221762, -50055.6211440782, 0.000976575551423828, ]
  - [30300, -49903.1544642617, 151.236432506171, -49751.9180317556, 100.318610901985, 51.9135, 51.9135, 51.9135, 139907.478583785, -25.041049904783, -5.68773788969321, -61.4814907355951, -7.9539210890604, -50057.1057893022, 0.00102169756617526, ]
  - [30400, -49901.901550821, 150.654438623409, -49751.2471121976, 99.932560947588, 51.9135, 51.9135, 51.9135, 139907.478583785, 267.376780887671, 264.808096566097, 300.383118971425, 236.939127125491, -50055.0698157058, 0.00106839762465251, ]
  - [30500, -49901.3647565821, 151.427759786539, -49749.9369967956, 100.445522696161, 51.9135, 51.9135, 51.9135, 139907.478583785, 291.125887104472, 350.921819750874, 293.672861137487, 228.782980425055, -50055.3140446818, 0.00111671263083812, ]
  - [30600, -49902.1602807085, 151.372935191277, -49750.7873455172, 100.409156278699, 51.9135, 51.9135, 51.9135, 139907.478583785, 140.41953953792, 139.054039687859, 109.493435415751, 172.711143510149, -50050.6170290682, 0.00116667987670637, ]
  - [30700, -49903.3560696413, 151.622541919579, -49751.7335277217, 100.574726173731, 51.9135, 51.9135, 51.9135, 139907.478583785, -98.206385122815, -202.662595757178, -0.833844414440315, -91.1227151968259, -50050.8399692088, 0.00121833703831365, ]
  - [30800, -49902.6743920243, 151.53656218713, -49751.1378298372, 100.517693835807, 51.9135, 51.9135, 51.9135, 139907.478583785, 60.8515913149685, 17.6423041896217, 109.795820536208, 55.1166492190758, -50050.7430105277, 0.00127172217180712, ]
  - [30900, -49902.8337730485, 150.996098776691, -49751.8376742718, 100.159192000766, 51.9135, 51.9135, 51.9135, 139907.478583785, -8.41707443640435, -49.6575196705583, 21.320256573642, 3.08603978770343, -50052.086116525, 0.00132687370935312, ]
  - [31000, -49902.2632374235, 150.976134453914, -49751.2871029696, 100.145949205393, 51.9135, 51.9135, 51.9135, 139907.478583785, 129.878086085464, 143.248460505825, 86.4063363182465, 159.979461432321, -50052.4210706853, 0.00138383045498687, ]
  - [31100, -49904.4509662107, 150.417050225107, -49754.0339159856, 99.7750957524144, 51.9135, 51.9135, 51.9135, 139907.478583785, -279.105020543453, -252.878050631868, -266.231043865813, -318.205967132678, -50051.2637763892, 0.00144263158038501, ]
  - [31200, -49904.3418378427, 151.136685753265, -49753.2051520895, 100.252446582133, 51.9135, 51.9135, 51.9135, 139907.478583785, -190.22795902754, -137.224878687585, -206.08318054417, -227.375817850865, -50050.5669740855, 0.00150331662056234, ]
  - [31300, -49904.0893800286, 150.27810219357, -49753.811277835, 99.6829283210598, 51.9135, 51.9135, 51.9135, 139907.478583785, -192.32810702293, -135.466243423187, -283.223622317826, -158.294455327777, -50049.9547945255, 0.00156592546949443, ]
  - [31400, -49903.8191021423, 147.806807134345, -49756.0122950079, 98.0436613576558, 51.9135, 51.9135, 51.9135, 139907.478583785, -97.1559700802989, -86.2240490584434, -130.56289718075, -74.6809640017033, -50051.4121651349, 0.00163049837566735, ]
  - [31500, -49902.2646116642, 152.466483793189, -49749.798127871, 101.134532267009, 51.9135, 51.9135, 51.9135, 139907.478583785, 245.493020090011, 226.187972549629, 286.668599046168, 223.622488674236, -50051.1951583725, 0.00169707593755625, ]
  - [31600, -49900.780548569, 152.103241380358, -49748.6773071887, 100.893585203712, 51.9135, 51.9135, 51.9135, 139907.478583785, 376.339226975386, 336.664161400714, 418.929152338506, 373.424367186938, -50053.9298326555, 0.00176569909903396, ]
  - [31700, -49902.5536972731, 150.702658714151, -49751.851038559, 99.9645464450019, 51.9135, 51.9135, 51.9135, 139907.478583785, 152.212212971094, 135.071503964896, 122.711578422811, 198.853556525577, -50052.2588187943, 0.0018364091447113, ]
[...]
  - [232600, -49903.2809312773, 150.763391754041, -49752.5175395233, 100.004832069945, 51.9135, 51.9135, 51.9135, 139907.478583785, -104.316982223004, -82.2759011064105, -140.33664001262, -90.3384055499813, -50053.7661563916, 0.000216911211583102, ]
  - [232700, -49903.1533199924, 149.913145511752, -49753.2401744806, 99.4408441436386, 51.9135, 51.9135, 51.9135, 139907.478583785, 7.5323558431708, 47.0804636337919, 12.5991748317474, -37.082570936027, -50049.3453843304, 0.000203362326959055, ]
  - [232800, -49904.0795513771, 151.119116871076, -49752.960434506, 100.240792737705, 51.9135, 51.9135, 51.9135, 139907.478583785, -158.553023581779, -177.44425016243, -142.863913711664, -155.350906871243, -50050.9255798697, 0.000190480389068545, ]
  - [232900, -49903.4293536457, 149.443877454518, -49753.9854761912, 99.129567827064, 51.9135, 51.9135, 51.9135, 139907.478583785, -51.9108670079069, -44.9108344277466, -56.7887018845258, -54.0330647114486, -50051.4851990934, 0.000178241940897418, ]
  - [233000, -49903.4670879168, 148.634604635822, -49754.832483281, 98.5927585168533, 51.9135, 51.9135, 51.9135, 139907.478583785, -102.464196022863, -62.7974439095879, -99.6452711441047, -144.949873014896, -50054.3100378195, 0.000166623985720989, ]
  - [233100, -49904.9412455099, 149.392163412274, -49755.5490820977, 99.0952647111014, 51.9135, 51.9135, 51.9135, 139907.478583785, -372.002687916294, -364.091592231911, -284.287902300932, -467.628569216039, -50055.5974375963, 0.000155603987394581, ]
  - [233200, -49905.2835633954, 149.222588343631, -49756.0609750518, 98.9827816602382, 51.9135, 51.9135, 51.9135, 139907.478583785, -400.301951381172, -357.660099618977, -426.767941862902, -416.477812661638, -50053.4695958556, 0.000145159870504403, ]
  - [233300, -49904.8628027886, 149.303727506315, -49755.5590752823, 99.0366031366865, 51.9135, 51.9135, 51.9135, 139907.478583785, -288.182497522567, -228.941932547979, -274.033807440705, -361.571752579016, -50051.712783058, 0.000135270020376871, ]
  - [233400, -49905.2922238404, 151.426251103841, -49753.8659727366, 100.44452195216, 51.9135, 51.9135, 51.9135, 139907.478583785, -281.69248344637, -370.883491677397, -283.233542163277, -190.960416498435, -50052.5545466285, 0.000125913282944476, ]
  - [233500, -49902.160088763, 150.132913969578, -49752.0271747934, 99.5866216262449, 51.9135, 51.9135, 51.9135, 139907.478583785, 127.516755067993, 194.741370176333, 78.3932715324241, 109.415623495221, -50050.8614533069, 0.000117068964466275, ]
  - [233600, -49901.458530422, 151.28315075745, -49750.1753796645, 100.349600194673, 51.9135, 51.9135, 51.9135, 139907.478583785, 319.602574224256, 349.024276430777, 285.903453405265, 323.879992836725, -50050.0857606674, 0.000108716831101108, ]
  - [233700, -49902.5324518744, 153.924362719859, -49748.6080891545, 102.101576955668, 51.9135, 51.9135, 51.9135, 139907.478583785, 185.719261606596, 142.673501034752, 144.589795119887, 269.89448866515, -50048.8006699367, 0.000100837108331576, ]
  - [233800, -49902.6459702256, 151.577813387007, -49751.0681568385, 100.545056707314, 51.9135, 51.9135, 51.9135, 139907.478583785, 114.766937071096, 112.974268370093, 86.9431122536186, 144.383430589576, -50050.2282577097, 9.34104802368709e-05, ]
  - [233900, -49902.0919451152, 151.130310253095, -49750.9616348621, 100.248217565948, 51.9135, 51.9135, 51.9135, 139907.478583785, 240.394701036258, 267.783396203099, 192.915594557217, 260.485112348459, -50050.1507706118, 8.64180886124633e-05, ]
  - [234000, -49902.9681367953, 150.932662251737, -49752.0354745436, 100.117113091879, 51.9135, 51.9135, 51.9135, 139907.478583785, 67.8713180972564, 69.4957847975449, 21.6220652045636, 112.496104289661, -50052.1569250433, 7.98415319347196e-05, ]
  - [234100, -49901.8904003481, 150.142728236856, -49751.7476721112, 99.5931316558986, 51.9135, 51.9135, 51.9135, 139907.478583785, 199.754176565306, 193.151657254479, 136.098105639737, 270.012766801703, -50053.3549319178, 7.36628641684439e-05, ]
  - [234200, -49902.4520490101, 151.184152340805, -49751.2678966693, 100.283932263509, 51.9135, 51.9135, 51.9135, 139907.478583785, 185.631185808595, 276.990978300678, 125.742774322615, 154.159804802491, -50054.1183282259, 6.78645934153684e-05, ]
  - [234300, -49902.6309001308, 150.552344296798, -49752.078555834, 99.8648394279981, 51.9135, 51.9135, 51.9135, 139907.478583785, 30.5219019015844, 17.4525692492645, 59.6536257802305, 14.4595106752576, -50056.6841566338, 6.24296804015905e-05, ]
  - [234400, -49905.54755647, 150.88261816141, -49754.6649383086, 100.083917693507, 51.9135, 51.9135, 51.9135, 139907.478583785, -384.381998197842, -450.289771941858, -313.617447325013, -389.238775326654, -50054.704091666, 5.73415368019447e-05, ]
  - [234500, -49902.8255578185, 151.0280652809, -49751.7974925376, 100.180396119671, 51.9135, 51.9135, 51.9135, 139907.478583785, 130.270472636383, 189.416574721921, 41.8770003640615, 159.517842823165, -50054.41135452, 5.25840233992875e-05, ]
  - [234600, -49903.3687401154, 151.792228340118, -49751.5765117753, 100.687283086872, 51.9135, 51.9135, 51.9135, 139907.478583785, 18.7934662250912, 2.14603000894045, 25.6165246414204, 28.6178440249127, -50051.3247132054, 4.81414480766631e-05, ]
  - [234700, -49903.3827836439, 150.534980183807, -49752.8478034601, 99.8533214116978, 51.9135, 51.9135, 51.9135, 139907.478583785, -29.5249437352311, 18.1572984055209, -18.710807776609, -88.0213218346053, -50052.2477406244, 4.39985636403036e-05, ]
  - [234800, -49904.1051062263, 150.962782472504, -49753.1423237538, 100.13709252843, 51.9135, 51.9135, 51.9135, 139907.478583785, -188.80663320694, -192.87493364097, -228.189301885212, -145.355664094638, -50051.5618383064, 4.01405654714093e-05, ]
  - [234900, -49904.692565861, 151.966188477036, -49752.7263773839, 100.802674854575, 51.9135, 51.9135, 51.9135, 139907.478583785, -375.106505636098, -349.694614467661, -376.090022421088, -399.534880019544, -50054.0311404279, 3.65530890046418e-05, ]
  - [235000, -49903.1483860158, 149.20088255566, -49753.9475034601, 98.9683837108708, 51.9135, 51.9135, 51.9135, 139907.478583785, -34.3219443488319, 36.0797421360044, -86.6939127096539, -52.3516624728465, -50054.1426929715, 3.32222070312498e-05, ]
  - [235100, -49903.5263653561, 149.796823535566, -49753.7295418205, 99.363685096212, 51.9135, 51.9135, 51.9135, 139907.478583785, 0.753461739917047, -41.0233346789549, 94.7028476519798, -51.4191277532733, -50053.0156415308, 3.01344268247407e-05, ]
  - [235200, -49902.9317269599, 152.998561964977, -49749.9331649949, 101.487471980016, 51.9135, 51.9135, 51.9135, 139907.478583785, 81.1096116575316, 104.056906414594, 102.314255947799, 36.9576726102016, -50052.2322081063, 2.72766870869938e-05, ]
  - [235300, -49902.6308085082, 150.237535970855, -49752.3932725373, 99.6560198106904, 51.9135, 51.9135, 51.9135, 139907.478583785, 130.478612039626, 210.485318353696, 54.9294167450891, 126.021101020094, -50050.5647200273, 2.46363547127045e-05, ]
  - [235400, -49903.1291135613, 151.861226674672, -49751.2678868867, 100.733051272238, 51.9135, 51.9135, 51.9135, 139907.478583785, -39.7414345503096, -36.5790931902394, -15.2177315781996, -67.4274788824901, -50048.7744910916, 2.22012213700348e-05, ]
  - [235500, -49903.3995601344, 151.910209969631, -49751.4893501647, 100.765543020597, 51.9135, 51.9135, 51.9135, 139907.478583785, 70.8094860605277, 129.034941576316, 13.2008032425704, 70.1927133626968, -50048.7983434162, 1.99594998953343e-05, ]
  - [235600, -49902.0392990297, 151.355340685293, -49750.6839583444, 100.397485437417, 51.9135, 51.9135, 51.9135, 139907.478583785, 235.601506964901, 210.95569969331, 282.424891158912, 213.423930042479, -50048.9699930746, 1.78998204997852e-05, ]
  - [235700, -49902.5652480431, 150.849242059364, -49751.7160059838, 100.061778555872, 51.9135, 51.9135, 51.9135, 139907.478583785, 120.284235196001, 118.475030416459, 95.5442844950068, 146.833390676539, -50050.347542559, 1.6011226785813e-05, ]
  - [235800, -49902.5253930117, 152.129864425676, -49750.3955285861, 100.911244883195, 51.9135, 51.9135, 51.9135, 139907.478583785, 38.7788523526299, 37.319019999944, -0.777811034739125, 79.7953480926841, -50052.7457904348, 1.42831715710918e-05, ]
  - [235900, -49904.1109527714, 150.185257005924, -49753.9256957655, 99.6213419684907, 51.9135, 51.9135, 51.9135, 139907.478583785, -107.813425600453, -124.543346797349, -148.962879061844, -49.9340509421648, -50052.3598880137, 1.27055125179639e-05, ]
  - [236000, -49903.1866066865, 150.645885112572, -49752.540721574, 99.9268872067353, 51.9135, 51.9135, 51.9135, 139907.478583785, -17.6542721372841, 77.6758237719021, -60.951289914026, -69.6873502697287, -50056.1076132109, 1.12685075660799e-05, ]
  - [236100, -49901.496395864, 150.660724746846, -49750.8356711172, 99.9367306781263, 51.9135, 51.9135, 51.9135, 139907.478583785, 140.831284971754, 179.340834364196, 49.551947904358, 193.601072646707, -50057.763384591, 9.96281016605479e-06, ]
  - [236200, -49903.4617529676, 152.476481563541, -49750.9852714041, 101.141164018481, 51.9135, 51.9135, 51.9135, 139907.478583785, 14.0023255613064, -21.6074330640612, 9.7029815564865, 53.9114281914945, -50055.301736966, 8.77946431192305e-06, ]
  - [236300, -49902.7427155418, 151.76241361861, -49750.9803019231, 100.66750629502, 51.9135, 51.9135, 51.9135, 139907.478583785, 36.0705314290347, 92.1005124085321, -8.93321060747792, 25.0442924860499, -50058.5857289326, 7.70989937016554e-06, ]
  - [236400, -49905.5740943319, 151.152524053239, -49754.4215702787, 100.262952491497, 51.9135, 51.9135, 51.9135, 139907.478583785, -473.992780377858, -478.25805699843, -406.994667762485, -536.725616372659, -50055.1803484943, 6.74592470306788e-06, ]
  - [236500, -49902.6541296288, 151.834139512681, -49750.8199901161, 100.71508373347, 51.9135, 51.9135, 51.9135, 139907.478583785, 90.3299562274521, 31.5821900141284, 169.065294088322, 70.3423845799055, -50054.1646844627, 5.87972408415909e-06, ]
  - [236600, -49904.2154377541, 152.101932632276, -49752.1135051218, 100.892717080949, 51.9135, 51.9135, 51.9135, 139907.478583785, -167.766890519803, -166.710941403355, -133.379457879742, -203.210272276311, -50053.7496223682, 5.10384990346715e-06, ]
  - [236700, -49903.5797416658, 149.969437399424, -49753.6103042664, 99.4781838499695, 51.9135, 51.9135, 51.9135, 139907.478583785, -122.904316107303, -118.162695061648, -76.5439682198813, -174.00628504038, -50057.0130867892, 4.41121716031669e-06, ]
  - [236800, -49902.8176422312, 150.603269026334, -49752.2143732048, 99.8986189746523, 51.9135, 51.9135, 51.9135, 139907.478583785, 68.8000264180101, -2.66278119072821, 136.904414858065, 72.1584455866932, -50055.0555179142, 3.79509724138197e-06, ]
  - [236900, -49902.9660749377, 151.679937481588, -49751.2861374561, 100.612797972683, 51.9135, 51.9135, 51.9135, 139907.478583785, 30.9332263513522, 30.8272074402068, -13.5580874474631, 75.5305590613121, -50053.2405935932, 3.24911148169665e-06, ]
  - [237000, -49902.2416191315, 152.663483793959, -49749.5781353375, 101.265206907355, 51.9135, 51.9135, 51.9135, 139907.478583785, 144.420922509249, 125.129847338405, 82.5481881955104, 225.584731993834, -50054.273399448, 2.76722450630996e-06, ]
  - [237100, -49900.918945574, 150.590462182472, -49750.3284833916, 99.890123899987, 51.9135, 51.9135, 51.9135, 139907.478583785, 296.360463628177, 234.284297507063, 358.644675989845, 296.152417387623, -50054.9850875291, 2.34373735026696e-06, ]
  - [237200, -49902.2562452619, 151.321854332524, -49750.9343909294, 100.375273167937, 51.9135, 51.9135, 51.9135, 139907.478583785, 117.055660854106, 123.832867116418, 183.085126747181, 44.2489886987204, -50051.7713965624, 1.97328035457889e-06, ]
  - [237300, -49902.5728650183, 151.145995502487, -49751.4268695158, 100.258621953334, 51.9135, 51.9135, 51.9135, 139907.478583785, 232.353785505399, 195.042903995395, 242.779305450245, 259.239147070556, -50049.889035868, 1.65080583583743e-06, ]
  - [237400, -49905.0905857552, 151.387689626922, -49753.7028961283, 100.418943235876, 51.9135, 51.9135, 51.9135, 139907.478583785, -363.302826224912, -386.345934405003, -363.891983512818, -339.670560756915, -50049.3639354315, 1.37158052711493e-06, ]
  - [237500, -49902.7996835029, 152.163115978085, -49750.6365675248, 100.933301404185, 51.9135, 51.9135, 51.9135, 139907.478583785, 145.261951196566, 168.218195068928, 186.206143689156, 81.3615148316146, -50049.3207275796, 1.13117778778074e-06, ]
  - [237600, -49903.623589422, 151.841420384194, -49751.7821690378, 100.719913303331, 51.9135, 51.9135, 51.9135, 139907.478583785, -106.022794190427, -100.109641645568, -130.686963739516, -87.2717771861959, -50052.6039514042, 9.25469579851505e-07, ]
  - [237700, -49903.418429069, 150.546331124558, -49752.8720979445, 99.8608507522792, 51.9135, 51.9135, 51.9135, 139907.478583785, -60.4089216382769, -158.32706101911, -95.4767746154317, 72.5770707197111, -50052.2939753994, 7.50618208481688e-07, ]
  - [237800, -49902.0959044141, 150.368359020931, -49751.7275453932, 99.7427977546027, 51.9135, 51.9135, 51.9135, 139907.478583785, 144.303270868888, 110.256663717412, 144.748028839722, 177.90512004953, -50052.9314545216, 6.03067824188189e-07, ]
  - [237900, -49903.9674208902, 150.814861064264, -49753.1525598259, 100.038972849518, 51.9135, 51.9135, 51.9135, 139907.478583785, -255.012645232725, -264.356094991809, -210.278712901578, -290.403127804789, -50054.1857601267, 4.79535684391034e-07, ]
  - [238000, -49902.3996315233, 149.702383176824, -49752.6972483465, 99.3010406298944, 51.9135, 51.9135, 51.9135, 139907.478583785, 90.5107940579909, 75.9203344607125, 74.9545204677259, 120.657527245535, -50053.84193984, 3.77003171839991e-07, ]
  - [238100, -49905.4099739254, 151.104878447801, -49754.3050954776, 100.231348063425, 51.9135, 51.9135, 51.9135, 139907.478583785, -466.846676999841, -541.147680049276, -444.229077922999, -415.163273027249, -50053.0833705242, 2.92706567484834e-07, ]
  - [238200, -49903.2736149283, 151.67087362091, -49751.6027413074, 100.606785705021, 51.9135, 51.9135, 51.9135, 139907.478583785, -67.2501263464968, -72.5875491774177, -46.3507172360763, -82.8121126259966, -50056.0690848379, 2.24127575334843e-07, ]
  - [238300, -49901.9106211676, 148.434264933979, -49753.4763562337, 98.459868575823, 51.9135, 51.9135, 51.9135, 139907.478583785, 193.374463644599, 219.648141385445, 204.516569434049, 155.958680114301, -50055.126956474, 1.68983596840973e-07, ]
  - [238400, -49903.6466544958, 151.108068130116, -49752.5385863657, 100.23346385321, 51.9135, 51.9135, 51.9135, 139907.478583785, -185.460299936302, -281.587651526834, -172.415522898512, -102.37772538356, -50054.47582032, 1.25217752321901e-07, ]
  - [238500, -49904.2672748967, 152.304370749084, -49751.9629041476, 101.026998948983, 51.9135, 51.9135, 51.9135, 139907.478583785, -158.664400664597, -143.216528642559, -208.299471962034, -124.477201389196, -50053.4322160714, 9.09886469429854e-08, ]
  - [238600, -49902.5657219199, 151.662193955681, -49750.9035279643, 100.601028283052, 51.9135, 51.9135, 51.9135, 139907.478583785, 103.692089033113, 50.2076174820651, 167.585052521134, 93.2835970961398, -50051.5541942753, 6.46598787448784e-08, ]
  - [238700, -49903.8530672592, 152.096547739929, -49751.7565195193, 100.889145157761, 51.9135, 51.9135, 51.9135, 139907.478583785, -67.7781576526205, -117.90454485552, -67.0439251009609, -18.3860030013806, -50051.7371445473, 4.47892862063161e-08, ]
  - [238800, -49903.5363154246, 149.978892140234, -49753.5574232844, 99.4844553974315, 51.9135, 51.9135, 51.9135, 139907.478583785, -100.863432105184, -153.779474520013, -152.474737058491, 3.66391526295052, -50053.9177703989, 3.01179328132691e-08, ]
  - [238900, -49904.668163242, 150.164693178378, -49754.5034700636, 99.6077015077894, 51.9135, 51.9135, 51.9135, 139907.478583785, -295.702723188766, -267.896647323494, -366.109322894055, -253.102199348748, -50053.7532012478, 1.95588260943479e-08, ]
  - [239000, -49903.5011276699, 150.022028886962, -49753.479098783, 99.5130689956161, 51.9135, 51.9135, 51.9135, 139907.478583785, -124.584565256597, -106.990324586081, -206.34706946274, -60.4163017209684, -50052.3670473666, 1.21853685699994e-08, ]
  - [239100, -49904.3094588693, 150.042980956339, -49754.2664779129, 99.5269669860707, 51.9135, 51.9135, 51.9135, 139907.478583785, -184.284294502932, -213.685342056715, -175.814338066197, -163.353203385884, -50051.0397991993, 7.21953805066191e-09, ]
  - [239200, -49903.7277273395, 150.484241409877, -49753.2434859296, 99.8196652136827, 51.9135, 51.9135, 51.9135, 139907.478583785, -72.7020813531089, -113.455475080042, -36.7221300272317, -67.9286389520531, -50049.295207261, 4.01979470665194e-09, ]
  - [239300, -49902.3878189945, 148.851166809506, -49753.536652185, 98.7364091973002, 51.9135, 51.9135, 51.9135, 139907.478583785, 71.8553402239366, 48.745758016573, 139.16350072616, 27.6567619290773, -50052.6906095642, 2.06871232013228e-09, ]
  - [239400, -49903.4402527444, 150.126155965267, -49753.3140967791, 99.5821388862481, 51.9135, 51.9135, 51.9135, 139907.478583785, 0.995134300086605, 8.29915731733157, 54.6940769640758, -60.0078313811474, -50050.5852063441, 9.60331117066315e-10, ]
  - [239500, -49903.9255299038, 151.227482659384, -49752.6980472444, 100.312674262363, 51.9135, 51.9135, 51.9135, 139907.478583785, -257.279998783405, -245.432261801348, -205.236726411975, -321.171008136893, -50052.2004593862, 3.87229564589803e-10, ]
  - [239600, -49903.9050111303, 152.572397729637, -49751.3326134007, 101.204787421825, 51.9135, 51.9135, 51.9135, 139907.478583785, -152.793951752256, -97.7449310389884, -171.452856380484, -189.184067837296, -50050.4661045661, 1.27312506734493e-10, ]
  - [239700, -49902.4431680272, 150.23567140614, -49752.2074966211, 99.6547830019461, 51.9135, 51.9135, 51.9135, 139907.478583785, 39.918435352323, 60.3755784627049, -15.2521359813726, 74.6318635756367, -50051.6454468231, 3.03129989146573e-11, ]
  - [239800, -49904.0014627484, 151.197736711354, -49752.803726037, 100.292943089544, 51.9135, 51.9135, 51.9135, 139907.478583785, -114.645934038456, -102.473847856878, -55.7210940400541, -185.742860218437, -50050.7532655856, 4.00518903939475e-12, ]
  - [239900, -49903.1506666377, 149.622999951764, -49753.5276666859, 99.2483839073377, 51.9135, 51.9135, 51.9135, 139907.478583785, -37.3366002198682, 70.5817628244533, -88.9415812320346, -93.6499822520233, -50053.9008741305, 1.25580539685001e-13, ]
  - [240000, -49903.5921783661, 151.479817283121, -49752.112361083, 100.480053633301, 51.9135, 51.9135, 51.9135, 139907.478583785, -167.897994698199, -220.392833127752, -153.116567139669, -130.184583827177, -50056.4087952577, 0, ]
...
Loop time of 139.375 on 64 procs for 100000 steps with 11664 atoms

Performance: 61.991 ns/day, 0.387 hours/ns, 717.489 timesteps/s, 8.369 Matom-step/s
60.5% CPU use with 64 MPI tasks x 1 OpenMP threads

MPI task timing breakdown:
Section |  min time  |  avg time  |  max time  |%varavg| %total
---------------------------------------------------------------
Pair    | 55.116     | 56.971     | 58.778     |  12.5 | 40.88
Neigh   | 0          | 0          | 0          |   0.0 |  0.00
Comm    | 25.656     | 27.417     | 29.24      |  18.1 | 19.67
Output  | 0.37272    | 0.41217    | 0.41372    |   0.8 |  0.30
Modify  | 22.935     | 24.091     | 52.555     |  73.3 | 17.29
Other   |            | 30.48      |            |       | 21.87

Nlocal:         182.25 ave         195 max         168 min
Histogram: 1 6 3 9 9 11 10 7 6 2
Nghost:        1275.75 ave        1290 max        1263 min
Histogram: 2 6 7 10 11 9 9 3 6 1
Neighs:        8492.02 ave        9021 max        7812 min
Histogram: 1 3 4 9 9 10 10 6 6 6

Total # of neighbors = 543489
Ave neighs/atom = 46.595422
Neighbor list builds = 0
Dangerous builds = 0
#------------------------------------------------------------------------------#
Total wall time: 0:06:49
