LAMMPS (2 Aug 2023)
OMP_NUM_THREADS environment is not set. Defaulting to 1 thread. (src/comm.cpp:98)
  using 1 OpenMP thread(s) per MPI task
#--------------------------- Simulation variables -----------------------------#
# Initalizes the random number generator.
variable RND equal round(random(0,999,${RANDOM}))
variable RND equal round(random(0,999,1))

# Simulation control parameters.
variable t_eq equal 20000 # Equilibration time.
variable t equal 100000 # Switching time.

#---------------------------- Atomic setup ------------------------------------#
units            metal
# Create atoms.
lattice          bcc ${a}
lattice          bcc 2.9114999999999998
Lattice spacing in x,y,z = 2.9115 2.9115 2.9115
region           sim_box block 0 18 0 18 0 18
create_box       1 sim_box
Created orthogonal box = (0 0 0) to (52.407 52.407 52.407)
  4 by 4 by 4 MPI processor grid
create_atoms     1 box
Created 11664 atoms
  using lattice units in orthogonal box = (0 0 0) to (52.407 52.407 52.407)
  create_atoms CPU = 0.001 seconds

# Define interatomic potential.
pair_style       eam
pair_coeff       * * ../Fe.eam
#----------------------------- Run simulation ---------------------------------#
# Initial temperature to accelerate equilibration.
velocity all create ${T} ${RND} mom yes rot yes dist gaussian
velocity all create 400 ${RND} mom yes rot yes dist gaussian
velocity all create 400 80 mom yes rot yes dist gaussian

# Integrator, Frenkel-Ladd modifier, and thermostat.
fix fe all nve
fix fti all ti/spring ${k} ${t} ${t_eq} function 2
fix fti all ti/spring 4.863832589108492 ${t} ${t_eq} function 2
fix fti all ti/spring 4.863832589108492 100000 ${t_eq} function 2
fix fti all ti/spring 4.863832589108492 100000 20000 function 2
fix ft all langevin ${T} ${T} 0.1 ${RND} zero yes
fix ft all langevin 400 ${T} 0.1 ${RND} zero yes
fix ft all langevin 400 400 0.1 ${RND} zero yes
fix ft all langevin 400 400 0.1 178 zero yes
compute tcom all temp/com
fix_modify ft temp tcom

# Setup thermo output.
variable dE equal pe-f_fti
variable lambda equal f_fti[1]

thermo_style custom step pe ke etotal temp lx ly lz vol press pxx pyy pzz v_dE v_lambda
thermo 100
thermo_modify line yaml
thermo_modify flush yes

# Forward integration.
run ${t_eq}
run 20000

CITE-CITE-CITE-CITE-CITE-CITE-CITE-CITE-CITE-CITE-CITE-CITE-CITE

Your simulation uses code contributions which should be cited:

- ti/spring command: doi:10.1016/j.commatsci.2015.10.050

@article{freitas2016,
  author={Freitas, Rodrigo and Asta, Mark and de Koning, Maurice},
  title={Nonequilibrium Free-Energy Calculation of Solids Using {LAMMPS}},
  journal={Computational Materials Science},
  volume={112},
  pages={333--341},
  year={2016},
  publisher={Elsevier}
}

CITE-CITE-CITE-CITE-CITE-CITE-CITE-CITE-CITE-CITE-CITE-CITE-CITE

Neighbor list info ...
  update: every = 1 steps, delay = 0 steps, check = yes
  max neighbors/atom: 2000, page size: 100000
  master list distance cutoff = 6.409104
  ghost atom cutoff = 6.409104
  binsize = 3.204552, bins = 17 17 17
  1 neighbor lists, perpetual/occasional/extra = 1 0 0
  (1) pair eam, perpetual
      attributes: half, newton on
      pair build: half/bin/atomonly/newton
      stencil: half/bin/3d
      bin: standard
Per MPI rank memory allocation (min/avg/max) = 3.724 | 3.732 | 3.736 Mbytes
---
keywords: ['Step', 'PotEng', 'KinEng', 'TotEng', 'Temp', 'Lx', 'Ly', 'Lz', 'Volume', 'Press', 'Pxx', 'Pyy', 'Pzz', 'v_dE', 'v_lambda', ]
data:
  - [0, -49918.2620850621, 603.024428454, -49315.2376566081, 400, 52.407, 52.407, 52.407, 143935.492663143, -62130.9806899935, -62081.7713569204, -62162.0090196612, -62149.161693399, -49918.2620850621, 0, ]
  - [100, -49504.5046107895, 508.946047878729, -48995.5585629107, 337.595642142416, 52.407, 52.407, 52.407, 143935.492663143, -8661.71923274549, -8675.41456219838, -8433.43735476333, -8876.30578127478, -49504.5046107895, 0, ]
  - [200, -49467.4086370726, 580.860317739328, -48886.5483193333, 385.29803459439, 52.407, 52.407, 52.407, 143935.492663143, -3053.48012927699, -2994.37427877357, -3180.46316367257, -2985.60294538484, -49467.4086370726, 0, ]
  - [300, -49439.1728933328, 585.070784403748, -48854.102108929, 388.090934162465, 52.407, 52.407, 52.407, 143935.492663143, 38.4875982971205, 38.8145229162907, 24.9938900595835, 51.6543819154872, -49439.1728933328, 0, ]
  - [400, -49440.6808800276, 599.018272434762, -48841.6626075928, 397.342624391181, 52.407, 52.407, 52.407, 143935.492663143, -151.610497943265, -184.160785719005, -190.041661242546, -80.6290468682432, -49440.6808800276, 0, ]
  - [500, -49439.6915726923, 599.02688872483, -48840.6646839675, 397.348339774945, 52.407, 52.407, 52.407, 143935.492663143, 644.124840448406, 608.682080562075, 606.410525969329, 717.281914813816, -49439.6915726923, 0, ]
  - [600, -49443.2655957935, 602.142382751382, -48841.1232130421, 399.414918758844, 52.407, 52.407, 52.407, 143935.492663143, -87.2888758076844, -266.064340930888, -90.7364770130166, 94.9341905208519, -49443.2655957935, 0, ]
  - [700, -49447.5540345624, 597.950781152006, -48849.6032534104, 396.634532823155, 52.407, 52.407, 52.407, 143935.492663143, -690.676752408375, -521.932900904376, -893.549083868724, -656.548272452024, -49447.5540345624, 0, ]
  - [800, -49438.1682863823, 599.362972056254, -48838.8053143261, 397.571271593668, 52.407, 52.407, 52.407, 143935.492663143, 364.795785547978, 306.906443691787, 408.813225804272, 378.667687147875, -49438.1682863823, 0, ]
  - [900, -49445.9920748125, 607.341671428552, -48838.6504033839, 402.863726755229, 52.407, 52.407, 52.407, 143935.492663143, -110.18141853661, -44.6975952659412, -172.795310193137, -113.051350150749, -49445.9920748125, 0, ]
  - [1000, -49444.3239487703, 604.599884283856, -48839.7240644864, 401.045036158084, 52.407, 52.407, 52.407, 143935.492663143, -194.253442056495, -241.219064111777, -69.5479965531869, -271.993265504522, -49444.3239487703, 0, ]
  - [1100, -49439.5610934782, 600.314761617808, -48839.2463318604, 398.202615543692, 52.407, 52.407, 52.407, 143935.492663143, 227.894286836894, 249.04840022972, 113.169218499832, 321.46524178113, -49439.5610934782, 0, ]
  - [1200, -49442.0091571746, 605.77752326117, -48836.2316339134, 401.826191230248, 52.407, 52.407, 52.407, 143935.492663143, 9.34058841198616, -55.5735810923716, 36.5954813493285, 46.9998649790022, -49442.0091571746, 0, ]
  - [1300, -49435.0240281357, 608.806790336454, -48826.2172377993, 403.835573890284, 52.407, 52.407, 52.407, 143935.492663143, 1077.55227946361, 1187.51438285298, 1075.03708531805, 970.1053702198, -49435.0240281357, 0, ]
  - [1400, -49441.1470274216, 602.622106563231, -48838.5249208584, 399.733130618406, 52.407, 52.407, 52.407, 143935.492663143, 121.597275126172, 85.8150639179529, 167.676720206564, 111.300041253998, -49441.1470274216, 0, ]
  - [1500, -49438.8724820166, 601.640294903817, -48837.2321871127, 399.081872319016, 52.407, 52.407, 52.407, 143935.492663143, 341.734839083506, 494.09485631071, 149.527770037144, 381.581890902665, -49438.8724820166, 0, ]
  - [1600, -49438.8282121204, 596.922801371915, -48841.9054107484, 395.952650145383, 52.407, 52.407, 52.407, 143935.492663143, 349.336948680793, 140.866642702341, 476.28296341292, 430.861239927118, -49438.8282121204, 0, ]
  - [1700, -49442.9689965232, 596.701537074339, -48846.2674594489, 395.805880437799, 52.407, 52.407, 52.407, 143935.492663143, -17.8866748444236, 205.363118371212, -335.263064922062, 76.2399220175784, -49442.9689965232, 0, ]
  - [1800, -49443.0126478645, 604.645425892817, -48838.3672219717, 401.075244956807, 52.407, 52.407, 52.407, 143935.492663143, -35.4854265518939, 256.017495544314, -239.703844726887, -122.769930473109, -49443.0126478645, 0, ]
  - [1900, -49438.5973001226, 606.747244424811, -48831.8500556978, 402.469429625168, 52.407, 52.407, 52.407, 143935.492663143, 453.596456644322, 494.934445297594, 368.834498415204, 497.02042622017, -49438.5973001226, 0, ]
  - [2000, -49447.1908406118, 604.364037058232, -48842.8268035535, 400.888593258264, 52.407, 52.407, 52.407, 143935.492663143, -547.041918488447, -563.007060117787, -600.945608423761, -477.173086923793, -49447.1908406118, 0, ]
  - [2100, -49455.6815666142, 603.93684737239, -48851.7447192418, 400.605228495124, 52.407, 52.407, 52.407, 143935.492663143, -1795.04065850102, -1896.59473847788, -1896.01555022192, -1592.51168680324, -49455.6815666142, 0, ]
  - [2200, -49442.3351335207, 603.226107629105, -48839.1090258916, 400.133778444513, 52.407, 52.407, 52.407, 143935.492663143, 67.8087588394124, 36.6066055061157, 173.852269725097, -7.03259871297432, -49442.3351335207, 0, ]
  - [2300, -49446.1038430462, 602.069563772084, -48844.0342792742, 399.366616251773, 52.407, 52.407, 52.407, 143935.492663143, -571.048163265834, -702.080085517688, -740.873192145379, -270.191212134434, -49446.1038430462, 0, ]
  - [2400, -49440.0093326587, 599.446313537349, -48840.5630191214, 397.62655391867, 52.407, 52.407, 52.407, 143935.492663143, 227.263909820522, 487.409996750909, -13.5086235935016, 207.890356304159, -49440.0093326587, 0, ]
  - [2500, -49437.0807297594, 603.649425379374, -48833.43130438, 400.41457486356, 52.407, 52.407, 52.407, 143935.492663143, 713.413490662078, 732.736871589427, 655.652821985362, 751.850778411446, -49437.0807297594, 0, ]
  - [2600, -49446.0990716451, 593.199117787501, -48852.8999538576, 393.482645012117, 52.407, 52.407, 52.407, 143935.492663143, -532.388983363334, -545.484283724731, -486.671331198385, -565.011335166887, -49446.0990716451, 0, ]
  - [2700, -49438.522157225, 597.912267280761, -48840.6098899443, 396.608985684812, 52.407, 52.407, 52.407, 143935.492663143, 419.859799023451, 315.019696416363, 724.124357990988, 220.435342663007, -49438.522157225, 0, ]
  - [2800, -49444.4042959432, 607.036461214238, -48837.367834729, 402.661273786552, 52.407, 52.407, 52.407, 143935.492663143, -225.468829470404, -379.992164845376, 170.732570741253, -467.146894307087, -49444.4042959432, 0, ]
  - [2900, -49439.5546515492, 596.570778219421, -48842.9838733298, 395.719145076013, 52.407, 52.407, 52.407, 143935.492663143, 374.981227873878, 173.925403050494, 566.417425114187, 384.60085545695, -49439.5546515492, 0, ]
  - [3000, -49447.642271796, 599.942334884616, -48847.6999369114, 397.955576309049, 52.407, 52.407, 52.407, 143935.492663143, -256.046529401264, -434.467705992971, -7.36487010734494, -326.307012103475, -49447.642271796, 0, ]
  - [3100, -49444.8869247238, 611.193803528409, -48833.6931211953, 405.418934748865, 52.407, 52.407, 52.407, 143935.492663143, -209.170190073856, -369.522688736619, -103.011410255153, -154.976471229794, -49444.8869247238, 0, ]
  - [3200, -49441.4492735231, 609.165868284923, -48832.2834052381, 404.0737585684, 52.407, 52.407, 52.407, 143935.492663143, 465.981392456578, 306.333515452513, 743.343236519718, 348.267425397505, -49441.4492735231, 0, ]
  - [3300, -49441.2188627051, 599.699511278872, -48841.5193514262, 397.794505815525, 52.407, 52.407, 52.407, 143935.492663143, 428.49324536122, 336.170388126713, 550.930721914214, 398.378626042732, -49441.2188627051, 0, ]
  - [3400, -49440.574947006, 600.531412433594, -48840.0435345724, 398.346325022489, 52.407, 52.407, 52.407, 143935.492663143, 172.289910507276, 94.4101180747773, 187.768805369398, 234.690808077651, -49440.574947006, 0, ]
  - [3500, -49439.8967173798, 602.872614575465, -48837.0241028044, 399.89929835584, 52.407, 52.407, 52.407, 143935.492663143, 235.558465152831, 516.754813536437, 66.9924637297304, 122.928118192326, -49439.8967173798, 0, ]
  - [3600, -49442.5215571357, 601.858679705109, -48840.6628774306, 399.226731990358, 52.407, 52.407, 52.407, 143935.492663143, 282.376086468989, 213.421640718142, 136.985135378283, 496.721483310543, -49442.5215571357, 0, ]
  - [3700, -49439.3244134536, 608.027432765197, -48831.2969806884, 403.318608053092, 52.407, 52.407, 52.407, 143935.492663143, 454.488323459764, 277.020005048902, 458.872895239523, 627.572070090866, -49439.3244134536, 0, ]
  - [3800, -49441.5137241266, 606.468704781142, -48835.0450193454, 402.284667860619, 52.407, 52.407, 52.407, 143935.492663143, 23.5235204946901, -110.123568891348, 289.85751978983, -109.16338941441, -49441.5137241266, 0, ]
  - [3900, -49436.4118278162, 600.847325486922, -48835.5645023293, 398.55587743093, 52.407, 52.407, 52.407, 143935.492663143, 925.043781371385, 802.397191764146, 926.313609238617, 1046.42054311139, -49436.4118278162, 0, ]
  - [4000, -49441.0052539053, 599.972076436659, -48841.0331774687, 397.975304565909, 52.407, 52.407, 52.407, 143935.492663143, 157.435911670232, 13.5180158119355, 513.348369910835, -54.5586507120783, -49441.0052539053, 0, ]
  - [4100, -49436.7006957013, 597.677139002479, -48839.0235566988, 396.453019679332, 52.407, 52.407, 52.407, 143935.492663143, 805.577354048127, 928.27959217568, 739.933110637419, 748.519359331282, -49436.7006957013, 0, ]
  - [4200, -49446.8402542371, 605.864084056884, -48840.9761701802, 401.883609000825, 52.407, 52.407, 52.407, 143935.492663143, -503.469503849162, -331.906202210387, -574.285788636453, -604.216520700645, -49446.8402542371, 0, ]
  - [4300, -49441.515451004, 599.995672469581, -48841.5197785344, 397.990956358313, 52.407, 52.407, 52.407, 143935.492663143, 153.839885090209, 178.121584532085, 225.44752263552, 57.950548103019, -49441.515451004, 0, ]
  - [4400, -49448.6135620659, 600.286483736862, -48848.327078329, 398.183858173602, 52.407, 52.407, 52.407, 143935.492663143, -895.369400718408, -877.114155707856, -628.993186735133, -1180.00085971224, -49448.6135620659, 0, ]
  - [4500, -49440.1251018832, 608.168425820023, -48831.9566760632, 403.412131995522, 52.407, 52.407, 52.407, 143935.492663143, 259.432545318351, 258.111929657175, 399.444508037965, 120.741198259909, -49440.1251018832, 0, ]
  - [4600, -49443.3737538689, 606.244536031079, -48837.1292178379, 402.135971562767, 52.407, 52.407, 52.407, 143935.492663143, -170.628665315068, -472.963758446869, -55.9449251729016, 17.0226876745702, -49443.3737538689, 0, ]
  - [4700, -49441.2955906961, 605.917958382607, -48835.3776323135, 401.919345082603, 52.407, 52.407, 52.407, 143935.492663143, 169.631002273433, 342.66750787137, 161.619084903622, 4.60641404530673, -49441.2955906961, 0, ]
  - [4800, -49443.1445187996, 606.307774551941, -48836.8367442477, 402.177919130977, 52.407, 52.407, 52.407, 143935.492663143, -262.379553495145, -165.154241723605, -319.708447633598, -302.275971128231, -49443.1445187996, 0, ]
  - [4900, -49445.0647164692, 597.491424677454, -48847.5732917917, 396.329831087784, 52.407, 52.407, 52.407, 143935.492663143, -300.635713941294, -420.889346505192, -214.713361328455, -266.304433990233, -49445.0647164692, 0, ]
  - [5000, -49442.3342583766, 600.410078711424, -48841.9241796652, 398.265841568456, 52.407, 52.407, 52.407, 143935.492663143, 120.967741342556, 357.30263610216, -0.180058496627818, 5.7806464221365, -49442.3342583766, 0, ]
  - [5100, -49441.2388100061, 599.467903168486, -48841.7709068376, 397.640874818533, 52.407, 52.407, 52.407, 143935.492663143, 127.631949134626, 27.1970730558883, 41.0686519353926, 314.630122412597, -49441.2388100061, 0, ]
  - [5200, -49438.6643499072, 603.335202029582, -48835.3291478776, 400.206143274413, 52.407, 52.407, 52.407, 143935.492663143, 522.995784338889, 525.186893830981, 345.603221444011, 698.197237741675, -49438.6643499072, 0, ]
  - [5300, -49438.6181619621, 609.370793526292, -48829.2473684358, 404.209690203471, 52.407, 52.407, 52.407, 143935.492663143, 147.000147185022, 406.249632816602, 169.287105327321, -134.536296588857, -49438.6181619621, 0, ]
  - [5400, -49439.0822608946, 612.476690782389, -48826.6055701122, 406.269903428372, 52.407, 52.407, 52.407, 143935.492663143, 420.557995304984, 400.757833561813, 725.383162642685, 135.532989710453, -49439.0822608946, 0, ]
  - [5500, -49439.339695098, 602.013343631229, -48837.3263514667, 399.32932413676, 52.407, 52.407, 52.407, 143935.492663143, 367.896302887374, 437.289142741434, 480.400889115491, 185.998876805195, -49439.339695098, 0, ]
  - [5600, -49434.8787637257, 598.483215703323, -48836.3955480223, 396.987708930917, 52.407, 52.407, 52.407, 143935.492663143, 774.310864964937, 825.032626334677, 657.322147971699, 840.577820588436, -49434.8787637257, 0, ]
  - [5700, -49444.320225037, 611.049881779013, -48833.270343258, 405.323468135835, 52.407, 52.407, 52.407, 143935.492663143, -82.6714874833551, 16.3136928197589, 40.9073328617753, -305.2354881316, -49444.320225037, 0, ]
  - [5800, -49430.7183097695, 600.027424780764, -48830.6908849887, 398.012018398048, 52.407, 52.407, 52.407, 143935.492663143, 1245.28168280415, 1558.00590990605, 1025.80616273987, 1152.03297576652, -49430.7183097695, 0, ]
  - [5900, -49436.1613195922, 606.53886074275, -48829.6224588494, 402.331203926687, 52.407, 52.407, 52.407, 143935.492663143, 982.838800795649, 1064.21909571474, 922.366327386057, 961.930979286148, -49436.1613195922, 0, ]
  - [6000, -49449.3080207539, 609.129475427865, -48840.1785453261, 404.049618347646, 52.407, 52.407, 52.407, 143935.492663143, -935.385469708443, -891.327478355341, -1010.14797814248, -904.680952627506, -49449.3080207539, 0, ]
  - [6100, -49445.0655491011, 598.304398762764, -48846.7611503383, 396.869095533435, 52.407, 52.407, 52.407, 143935.492663143, -252.901294699622, -337.696149625109, -270.310837608731, -150.696896865027, -49445.0655491011, 0, ]
  - [6200, -49445.3770087776, 599.090464654365, -48846.2865441232, 397.390511154103, 52.407, 52.407, 52.407, 143935.492663143, -404.740098362878, -392.845002593147, -479.000292743089, -342.374999752398, -49445.3770087776, 0, ]
  - [6300, -49444.424115917, 597.702148727565, -48846.7219671894, 396.469609206327, 52.407, 52.407, 52.407, 143935.492663143, -314.004562829895, -452.895668064738, -327.074248580428, -162.043771844515, -49444.424115917, 0, ]
  - [6400, -49444.5132282847, 601.790383316187, -48842.7228449685, 399.181429421705, 52.407, 52.407, 52.407, 143935.492663143, -362.114298904195, -260.924488863817, -401.870693000579, -423.547714848187, -49444.5132282847, 0, ]
  - [6500, -49445.2953992255, 612.112005143101, -48833.1833940824, 406.027999039707, 52.407, 52.407, 52.407, 143935.492663143, -769.566063423166, -422.063744060126, -1040.82325573854, -845.811190470832, -49445.2953992255, 0, ]
  - [6600, -49438.0857658474, 603.283474680713, -48834.8022911667, 400.17183133186, 52.407, 52.407, 52.407, 143935.492663143, 449.468984773982, 530.068015606347, 583.564082611165, 234.774856104429, -49438.0857658474, 0, ]
  - [6700, -49437.9642253239, 597.414311324445, -48840.5499139995, 396.278680023668, 52.407, 52.407, 52.407, 143935.492663143, 350.400471500362, 319.55894182698, 402.363802353847, 329.278670320259, -49437.9642253239, 0, ]
  - [6800, -49441.9551773161, 603.580946065053, -48838.374231251, 400.369150956276, 52.407, 52.407, 52.407, 143935.492663143, -266.636692507602, -308.376164651184, -78.5809169907032, -412.952995880919, -49441.9551773161, 0, ]
  - [6900, -49431.8817817154, 611.717047230717, -48820.1647344847, 405.766014354677, 52.407, 52.407, 52.407, 143935.492663143, 1088.92586803275, 1130.07680806194, 1265.84922793143, 870.851568104888, -49431.8817817154, 0, ]
  - [7000, -49435.054917306, 601.635432049749, -48833.4194852562, 399.078646675849, 52.407, 52.407, 52.407, 143935.492663143, 885.364673300294, 854.991411807978, 692.08972120722, 1109.01288688568, -49435.054917306, 0, ]
  - [7100, -49442.1681182821, 608.940445353675, -48833.2276729284, 403.924230343267, 52.407, 52.407, 52.407, 143935.492663143, 111.029689941257, 359.308475931239, -55.5770431896913, 29.3576370822272, -49442.1681182821, 0, ]
  - [7200, -49435.0051668739, 604.580799623326, -48830.4243672506, 401.032376862951, 52.407, 52.407, 52.407, 143935.492663143, 940.454844762095, 988.502590746876, 1035.28654442371, 797.575399115704, -49435.0051668739, 0, ]
  - [7300, -49442.6441368353, 607.602268813857, -48835.0418680214, 403.03658700633, 52.407, 52.407, 52.407, 143935.492663143, -170.745703546924, -177.411586579337, -255.489413725581, -79.3361103358538, -49442.6441368353, 0, ]
  - [7400, -49441.2471324607, 603.895610225369, -48837.3515222354, 400.577874945201, 52.407, 52.407, 52.407, 143935.492663143, -187.252055369416, -230.962275067096, -219.522911083693, -111.270979957458, -49441.2471324607, 0, ]
  - [7500, -49438.9849143478, 601.839366121384, -48837.1455482265, 399.213920845194, 52.407, 52.407, 52.407, 143935.492663143, 195.975699156026, 476.043957292586, 2.15973390904493, 109.723406266447, -49438.9849143478, 0, ]
  - [7600, -49441.9341781093, 605.933262796588, -48836.0009153128, 401.929496853085, 52.407, 52.407, 52.407, 143935.492663143, 166.574245216221, 324.242292380162, -129.678882552272, 305.159325820775, -49441.9341781093, 0, ]
  - [7700, -49445.7108920816, 595.655939787549, -48850.0549522941, 395.11231166184, 52.407, 52.407, 52.407, 143935.492663143, -438.865312236976, -431.699094085211, -427.334004195261, -457.562838430457, -49445.7108920816, 0, ]
  - [7800, -49447.1999804553, 612.494689759462, -48834.7052906959, 406.281842564648, 52.407, 52.407, 52.407, 143935.492663143, -609.330061448945, -563.781434244812, -397.737901606646, -866.470848495377, -49447.1999804553, 0, ]
  - [7900, -49433.980306863, 603.233542887741, -48830.7467639752, 400.138710422911, 52.407, 52.407, 52.407, 143935.492663143, 1013.06054321928, 933.427975585901, 1215.33389207515, 890.4197619968, -49433.980306863, 0, ]
  - [8000, -49433.476076669, 607.014750943306, -48826.4613257257, 402.646872863533, 52.407, 52.407, 52.407, 143935.492663143, 1094.14269497955, 1259.61612222199, 1321.94165947522, 700.870303241428, -49433.476076669, 0, ]
  - [8100, -49437.5031382571, 614.087555473491, -48823.4155827836, 407.338427100112, 52.407, 52.407, 52.407, 143935.492663143, 509.033087218202, 611.029217729469, 520.777907605399, 395.292136319736, -49437.5031382571, 0, ]
  - [8200, -49435.0246796453, 606.893233401082, -48828.1314462442, 402.566267477423, 52.407, 52.407, 52.407, 143935.492663143, 664.796549510554, 625.182971281909, 886.494036553574, 482.71264069618, -49435.0246796453, 0, ]
  - [8300, -49446.6915475841, 600.441333298096, -48846.250214286, 398.286573456053, 52.407, 52.407, 52.407, 143935.492663143, -661.23093707924, -685.272720862595, -576.18462514464, -722.23546523048, -49446.6915475841, 0, ]
  - [8400, -49448.9873279692, 600.042897487, -48848.9444304822, 398.02228180066, 52.407, 52.407, 52.407, 143935.492663143, -848.569108088634, -944.099123810945, -710.630781277346, -890.977419177608, -49448.9873279692, 0, ]
  - [8500, -49442.7994270108, 600.376889364263, -48842.4225376466, 398.243826309641, 52.407, 52.407, 52.407, 143935.492663143, -107.476020702228, -139.617241529135, 0.820369401459308, -183.63118997901, -49442.7994270108, 0, ]
  - [8600, -49444.7129878933, 605.269985342692, -48839.4430025506, 401.489529632787, 52.407, 52.407, 52.407, 143935.492663143, -423.458337770085, -539.312828220137, -361.85199894072, -369.2101861494, -49444.7129878933, 0, ]
  - [8700, -49439.6796668009, 599.480148301518, -48840.1995184994, 397.64899729746, 52.407, 52.407, 52.407, 143935.492663143, 317.859950662273, 266.394563104724, 416.342211742477, 270.843077139618, -49439.6796668009, 0, ]
  - [8800, -49437.6172420433, 607.626709893265, -48829.9905321501, 403.052799337542, 52.407, 52.407, 52.407, 143935.492663143, 605.262104883231, 448.527882958072, 703.413997665036, 663.844434026584, -49437.6172420433, 0, ]
  - [8900, -49441.636281341, 608.732575260141, -48832.9037060809, 403.786345319891, 52.407, 52.407, 52.407, 143935.492663143, 164.376414220229, 213.312340184071, 214.300575975033, 65.5163265015826, -49441.636281341, 0, ]
  - [9000, -49438.6119995852, 605.738761331152, -48832.8732382541, 401.800479548804, 52.407, 52.407, 52.407, 143935.492663143, 741.656751355344, 1005.81137671998, 244.291072592704, 974.867804753342, -49438.6119995852, 0, ]
  - [9100, -49439.4987034798, 607.63613456989, -48831.8625689099, 403.059050942738, 52.407, 52.407, 52.407, 143935.492663143, 238.073999456467, 69.9832530569405, 306.927244755387, 337.311500557071, -49439.4987034798, 0, ]
  - [9200, -49438.3364876913, 601.721730607196, -48836.6147570841, 399.135890497741, 52.407, 52.407, 52.407, 143935.492663143, 472.689241044092, 617.241637719588, 274.699505653351, 526.12657975934, -49438.3364876913, 0, ]
  - [9300, -49448.4144510096, 606.152270844139, -48842.2621801654, 402.074769938032, 52.407, 52.407, 52.407, 143935.492663143, -791.032978640684, -716.094935368624, -764.082853449081, -892.921147104347, -49448.4144510096, 0, ]
  - [9400, -49440.6152606479, 595.059637360361, -48845.5556232875, 394.716770520187, 52.407, 52.407, 52.407, 143935.492663143, 142.451971769019, 168.169764305454, 133.72551708025, 125.460633921351, -49440.6152606479, 0, ]
  - [9500, -49437.6212386578, 602.471731502407, -48835.1495071554, 399.633383375191, 52.407, 52.407, 52.407, 143935.492663143, 675.337541709883, 580.778457704392, 721.361923005426, 723.872244419829, -49437.6212386578, 0, ]
  - [9600, -49439.1955817733, 606.733553336008, -48832.4620284373, 402.460348010456, 52.407, 52.407, 52.407, 143935.492663143, 242.164117341531, 178.968699245521, 409.266583201199, 138.257069577873, -49439.1955817733, 0, ]
  - [9700, -49442.686000324, 603.467039470809, -48839.2189608532, 400.293594087353, 52.407, 52.407, 52.407, 143935.492663143, -382.040748848697, -806.374132769104, -223.905864347824, -115.842249429163, -49442.686000324, 0, ]
  - [9800, -49444.7925423259, 610.105717606024, -48834.6868247199, 404.697182281772, 52.407, 52.407, 52.407, 143935.492663143, -96.1099704584798, -341.944338353649, 7.13994599889721, 46.474480979313, -49444.7925423259, 0, ]
  - [9900, -49442.167352683, 608.927913643319, -48833.2394390397, 403.915917770996, 52.407, 52.407, 52.407, 143935.492663143, 127.322884046336, 167.441686082187, 93.8338590496221, 120.693107007203, -49442.167352683, 0, ]
  - [10000, -49437.4449443375, 592.273926786424, -48845.1710175511, 392.868944500217, 52.407, 52.407, 52.407, 143935.492663143, 669.738935370269, 516.467648991164, 808.726336259924, 684.02282085972, -49437.4449443375, 0, ]
  - [10100, -49436.1612556481, 607.464612926675, -48828.6966427214, 402.945276684103, 52.407, 52.407, 52.407, 143935.492663143, 534.488666304271, 436.227628505524, 535.084329788237, 632.154040619051, -49436.1612556481, 0, ]
  - [10200, -49448.3840580863, 604.135736721911, -48844.2483213644, 400.737156384036, 52.407, 52.407, 52.407, 143935.492663143, -725.690955332081, -596.600981485567, -811.036085439008, -769.435799071665, -49448.3840580863, 0, ]
  - [10300, -49439.9227514934, 601.244849888856, -48838.6779016046, 398.819564527622, 52.407, 52.407, 52.407, 143935.492663143, 279.953383389572, 143.38382036233, 584.478863874734, 111.997465931653, -49439.9227514934, 0, ]
  - [10400, -49433.4948591017, 598.181433962331, -48835.3134251394, 396.787530147603, 52.407, 52.407, 52.407, 143935.492663143, 791.486381850315, 923.590331460135, 688.370456829095, 762.498357261719, -49433.4948591017, 0, ]
  - [10500, -49437.7330038472, 600.428623619371, -48837.3043802278, 398.278142833262, 52.407, 52.407, 52.407, 143935.492663143, 663.215994092703, 799.858504096405, 891.29473970399, 298.494738477714, -49437.7330038472, 0, ]
  - [10600, -49441.0856414504, 606.679413921556, -48834.4062275288, 402.424436089216, 52.407, 52.407, 52.407, 143935.492663143, 413.984035393101, 540.210431353349, 792.872919578102, -91.1312447521474, -49441.0856414504, 0, ]
  - [10700, -49440.9272514901, 605.960383692955, -48834.9668677971, 401.947486768642, 52.407, 52.407, 52.407, 143935.492663143, -67.2134820177924, -37.5270585663838, 42.9330307412234, -207.046418228218, -49440.9272514901, 0, ]
  - [10800, -49439.4960223465, 604.666923105712, -48834.8290992408, 401.089504553521, 52.407, 52.407, 52.407, 143935.492663143, 487.970367551758, 424.948056789383, 396.483088759896, 642.479957105993, -49439.4960223465, 0, ]
  - [10900, -49445.0682611282, 603.096219641566, -48841.9720414866, 400.047620749129, 52.407, 52.407, 52.407, 143935.492663143, -334.992090911903, -120.845881598118, -430.587323997515, -453.543067140078, -49445.0682611282, 0, ]
  - [11000, -49441.7111203939, 603.350727411529, -48838.3603929824, 400.216441618039, 52.407, 52.407, 52.407, 143935.492663143, 138.815331059342, 83.7523190715757, 21.3081304448212, 311.385543661631, -49441.7111203939, 0, ]
  - [11100, -49441.0590971633, 600.799952909699, -48840.2591442536, 398.524454108763, 52.407, 52.407, 52.407, 143935.492663143, -174.256996123731, 67.0054491310368, -375.993383961591, -213.783053540636, -49441.0590971633, 0, ]
  - [11200, -49439.4315990503, 606.743510898106, -48832.6880881522, 402.466953090866, 52.407, 52.407, 52.407, 143935.492663143, 490.428234455089, 449.568865876609, 437.427718035397, 584.288119453261, -49439.4315990503, 0, ]
  - [11300, -49440.6916009102, 606.956387472025, -48833.7352134382, 402.608159028055, 52.407, 52.407, 52.407, 143935.492663143, 242.732725162993, 220.327995084962, 57.7113451957522, 450.158835208268, -49440.6916009102, 0, ]
  - [11400, -49434.9044348919, 606.817649443318, -48828.0867854486, 402.516130896417, 52.407, 52.407, 52.407, 143935.492663143, 916.766561306036, 905.445013031399, 1177.77284748127, 667.081823405442, -49434.9044348919, 0, ]
  - [11500, -49447.2978858308, 609.71602864907, -48837.5818571817, 404.438692616301, 52.407, 52.407, 52.407, 143935.492663143, -471.534753208781, -568.881640046949, -216.190724871658, -629.531894707735, -49447.2978858308, 0, ]
  - [11600, -49441.6220455322, 606.409303859363, -48835.2127416729, 402.245265860318, 52.407, 52.407, 52.407, 143935.492663143, -59.6992902952408, 172.071995549496, -133.41366568631, -217.756200748907, -49441.6220455322, 0, ]
  - [11700, -49441.7990513507, 602.741886935948, -48839.0571644148, 399.81258369995, 52.407, 52.407, 52.407, 143935.492663143, 250.155524521516, -132.935145628178, 260.155733004524, 623.245986188203, -49441.7990513507, 0, ]
  - [11800, -49440.8866618769, 601.700186994426, -48839.1864748825, 399.121600122921, 52.407, 52.407, 52.407, 143935.492663143, 176.565016035127, 47.6997342942133, 96.5135646108503, 385.481749200316, -49440.8866618769, 0, ]
  - [11900, -49437.3004699406, 600.92928279931, -48836.3711871413, 398.61024160493, 52.407, 52.407, 52.407, 143935.492663143, 600.029900205037, 454.819799587991, 542.472334116587, 802.797566910533, -49437.3004699406, 0, ]
  - [12000, -49446.1024856271, 604.142318015999, -48841.9601676111, 400.741521908069, 52.407, 52.407, 52.407, 143935.492663143, -414.122639138859, -673.305340312095, -290.661966957166, -278.400610147318, -49446.1024856271, 0, ]
  - [12100, -49441.3482746062, 600.773605349602, -48840.5746692566, 398.506977164976, 52.407, 52.407, 52.407, 143935.492663143, 68.8698155601346, -20.1280872773502, 49.8221851890429, 176.915348768712, -49441.3482746062, 0, ]
  - [12200, -49437.321166987, 602.717414191694, -48834.6037527953, 399.796350364715, 52.407, 52.407, 52.407, 143935.492663143, 603.906370209512, 478.924237982012, 647.508125190401, 685.286747456124, -49437.321166987, 0, ]
  - [12300, -49444.1521481247, 603.484193607799, -48840.6679545169, 400.304972821733, 52.407, 52.407, 52.407, 143935.492663143, 120.359348856868, 33.3557340517025, 53.0499027278708, 274.67240979103, -49444.1521481247, 0, ]
  - [12400, -49435.1091732513, 599.693386024851, -48835.4157872264, 397.790442793378, 52.407, 52.407, 52.407, 143935.492663143, 905.306249372539, 813.304342239714, 1010.04814583392, 892.566260043983, -49435.1091732513, 0, ]
  - [12500, -49447.2886764075, 597.701103035985, -48849.5875733715, 396.468915575004, 52.407, 52.407, 52.407, 143935.492663143, -753.605131257284, -767.831662419671, -536.000015819307, -956.983715532872, -49447.2886764075, 0, ]
  - [12600, -49446.3798608056, 608.510689701313, -48837.8691711043, 403.639163515401, 52.407, 52.407, 52.407, 143935.492663143, -380.396454475997, -368.705576070643, -616.987587817939, -155.496199539407, -49446.3798608056, 0, ]
  - [12700, -49447.6735180381, 608.066979721446, -48839.6065383166, 403.344840460526, 52.407, 52.407, 52.407, 143935.492663143, -363.159183837823, -350.496245037276, -461.025068159314, -277.956238316881, -49447.6735180381, 0, ]
  - [12800, -49443.8064882524, 597.146686506487, -48846.6598017459, 396.101158314543, 52.407, 52.407, 52.407, 143935.492663143, -136.898309133167, -37.0253562206383, -197.099582725326, -176.569988453537, -49443.8064882524, 0, ]
  - [12900, -49439.4097636901, 600.921341443488, -48838.4884222466, 398.604973920607, 52.407, 52.407, 52.407, 143935.492663143, 227.004199678321, 316.894473191889, 343.67898958941, 20.4391362536623, -49439.4097636901, 0, ]
  - [13000, -49442.4376297682, 603.865504972569, -48838.5721247956, 400.557905437248, 52.407, 52.407, 52.407, 143935.492663143, -22.0264734963105, 141.803499421756, -94.8807925856735, -113.002127325015, -49442.4376297682, 0, ]
  - [13100, -49437.8759055695, 611.152133981646, -48826.7237715879, 405.391294378229, 52.407, 52.407, 52.407, 143935.492663143, 551.357279474755, 376.433165445994, 829.759876251297, 447.878796726972, -49437.8759055695, 0, ]
  - [13200, -49442.9742866121, 607.135340159064, -48835.8389464531, 402.726862469305, 52.407, 52.407, 52.407, 143935.492663143, -186.134748058357, -201.437073027985, -293.067199796893, -63.8999713501921, -49442.9742866121, 0, ]
  - [13300, -49441.8639357719, 607.917046720839, -48833.9468890511, 403.24538644604, 52.407, 52.407, 52.407, 143935.492663143, -44.1848651314172, 83.6270457381496, 121.793032345493, -337.974673477893, -49441.8639357719, 0, ]
  - [13400, -49442.0042761213, 601.358161935791, -48840.6461141855, 398.894727019613, 52.407, 52.407, 52.407, 143935.492663143, 223.610980087032, 181.89745891624, 132.799080142217, 356.136401202639, -49442.0042761213, 0, ]
  - [13500, -49439.4197678493, 596.819449033304, -48842.600318816, 395.884094157443, 52.407, 52.407, 52.407, 143935.492663143, 232.240039711411, 202.226139623575, 280.166911746413, 214.327067764246, -49439.4197678493, 0, ]
  - [13600, -49442.8910992624, 594.991363709104, -48847.8997355533, 394.671483033952, 52.407, 52.407, 52.407, 143935.492663143, -275.262681511415, -207.504850494363, -264.187644167215, -354.095549872664, -49442.8910992624, 0, ]
  - [13700, -49443.6140837893, 604.365436972615, -48839.2486468166, 400.889521853735, 52.407, 52.407, 52.407, 143935.492663143, -193.648179437993, -68.9695829342559, 89.215369541214, -601.190324920936, -49443.6140837893, 0, ]
  - [13800, -49444.7372783006, 603.301314442487, -48841.4359638581, 400.183664856959, 52.407, 52.407, 52.407, 143935.492663143, -84.0022186156393, -8.89970757257578, 23.6880910506316, -266.795039324972, -49444.7372783006, 0, ]
  - [13900, -49439.5497641361, 597.594961006291, -48841.9548031298, 396.398509120681, 52.407, 52.407, 52.407, 143935.492663143, 375.927894780934, 579.631679906778, 168.814879128482, 379.337125307539, -49439.5497641361, 0, ]
  - [14000, -49444.7751741002, 609.556012662134, -48835.2191614381, 404.332550324623, 52.407, 52.407, 52.407, 143935.492663143, -239.478003856579, -159.244486387881, -336.494281007649, -222.695244174209, -49444.7751741002, 0, ]
  - [14100, -49437.8596881854, 598.355572505605, -48839.5041156798, 396.903040256353, 52.407, 52.407, 52.407, 143935.492663143, 501.803730991486, 364.577253911429, 467.180551033608, 673.65338802942, -49437.8596881854, 0, ]
  - [14200, -49447.8654424418, 608.810738902663, -48839.0547035391, 403.838193065245, 52.407, 52.407, 52.407, 143935.492663143, -594.740934453658, -567.688124230973, -488.400205429043, -728.13447370096, -49447.8654424418, 0, ]
  - [14300, -49436.4887394946, 604.093744081411, -48832.3949954132, 400.709301697878, 52.407, 52.407, 52.407, 143935.492663143, 881.86488943936, 944.484062965351, 856.448266532472, 844.662338820259, -49436.4887394946, 0, ]
  - [14400, -49434.1580029246, 600.347981706587, -48833.810021218, 398.224651194132, 52.407, 52.407, 52.407, 143935.492663143, 841.981572583868, 851.079651925559, 814.500470524398, 860.364595301651, -49434.1580029246, 0, ]
  - [14500, -49441.4980313644, 610.236200318706, -48831.2618310457, 404.783734472048, 52.407, 52.407, 52.407, 143935.492663143, 232.543756048449, -208.8425933438, 377.429534794403, 529.044326694744, -49441.4980313644, 0, ]
  - [14600, -49441.848651667, 610.058190948002, -48831.790460719, 404.665656754261, 52.407, 52.407, 52.407, 143935.492663143, 109.182128963299, 43.8898891562463, 408.815978911037, -125.159481177385, -49441.848651667, 0, ]
  - [14700, -49444.029483791, 602.281217946412, -48841.7482658446, 399.507011343143, 52.407, 52.407, 52.407, 143935.492663143, -410.299339078965, -216.32973838826, -467.210121749387, -547.358157099247, -49444.029483791, 0, ]
  - [14800, -49449.6478975039, 606.614543594073, -48843.0333539098, 402.381406106069, 52.407, 52.407, 52.407, 143935.492663143, -1009.01478879431, -1193.71317637396, -977.457709920049, -855.873480088902, -49449.6478975039, 0, ]
  - [14900, -49440.3511234368, 602.149701321879, -48838.2014221149, 399.41977333531, 52.407, 52.407, 52.407, 143935.492663143, 406.064080020755, 540.064320802216, 498.741373739871, 179.386545520174, -49440.3511234368, 0, ]
  - [15000, -49440.5938849077, 605.253625517794, -48835.3402593899, 401.478677783923, 52.407, 52.407, 52.407, 143935.492663143, 240.788415644708, 253.236842715455, 240.530787251275, 228.597616967392, -49440.5938849077, 0, ]
  - [15100, -49443.8327113159, 605.266718116944, -48838.5659931989, 401.487362406656, 52.407, 52.407, 52.407, 143935.492663143, -188.920107680354, -149.027228658012, -174.312755281023, -243.420339102028, -49443.8327113159, 0, ]
  - [15200, -49439.1375577476, 600.827633248535, -48838.309924499, 398.542815115403, 52.407, 52.407, 52.407, 143935.492663143, 485.99470371367, 605.598197663624, 503.862836407962, 348.523077069424, -49439.1375577476, 0, ]
  - [15300, -49442.8711081508, 602.310130683475, -48840.5609774673, 399.526189827927, 52.407, 52.407, 52.407, 143935.492663143, -172.059303894086, -4.33489066222096, -142.024790835657, -369.81823018438, -49442.8711081508, 0, ]
  - [15400, -49436.6257052594, 602.921015250211, -48833.7046900092, 399.931403638785, 52.407, 52.407, 52.407, 143935.492663143, 868.803763603605, 973.227564169939, 640.931466774123, 992.252259866756, -49436.6257052594, 0, ]
  - [15500, -49436.788833766, 606.620405712555, -48830.1684280534, 402.38529458435, 52.407, 52.407, 52.407, 143935.492663143, 858.970263848095, 1052.66363421797, 756.954077209052, 767.293080117259, -49436.788833766, 0, ]
  - [15600, -49441.9055378311, 610.649596436348, -48831.2559413947, 405.057949643531, 52.407, 52.407, 52.407, 143935.492663143, 299.657804787024, 209.718252674299, 509.56573835445, 179.689423332325, -49441.9055378311, 0, ]
  - [15700, -49430.5547123675, 595.266573424429, -48835.2881389431, 394.854035980293, 52.407, 52.407, 52.407, 143935.492663143, 1277.71605623305, 1277.97298348047, 1211.29485420057, 1343.8803310181, -49430.5547123675, 0, ]
  - [15800, -49441.7005820783, 603.599595958739, -48838.1009861195, 400.381521860541, 52.407, 52.407, 52.407, 143935.492663143, 14.9481380152019, 122.605373118643, -106.486894073955, 28.7259350009184, -49441.7005820783, 0, ]
  - [15900, -49445.4832776386, 597.265847889705, -48848.2174297489, 396.180200806088, 52.407, 52.407, 52.407, 143935.492663143, -319.069591220492, -555.144449455656, -185.166117115285, -216.898207090536, -49445.4832776386, 0, ]
  - [16000, -49441.0893978931, 604.515674021998, -48836.5737238711, 400.989177550781, 52.407, 52.407, 52.407, 143935.492663143, 230.338268288961, 525.564567105725, -69.2660700977374, 234.716307858896, -49441.0893978931, 0, ]
  - [16100, -49437.9589308117, 602.207945040094, -48835.7509857716, 399.45840773582, 52.407, 52.407, 52.407, 143935.492663143, 404.577741494433, 539.793156755996, 429.113138930658, 244.826928796644, -49437.9589308117, 0, ]
  - [16200, -49437.1666726704, 605.091282746415, -48832.075389924, 401.370992082503, 52.407, 52.407, 52.407, 143935.492663143, 794.407706737185, 806.210600203175, 723.169052412174, 853.843467596205, -49437.1666726704, 0, ]
  - [16300, -49439.7246617162, 607.257568007504, -48832.4670937087, 402.807939017898, 52.407, 52.407, 52.407, 143935.492663143, 249.302205115293, 351.183961871725, 290.804748823327, 105.917904650828, -49439.7246617162, 0, ]
  - [16400, -49439.6832514169, 601.012523132057, -48838.6707282848, 398.665456835902, 52.407, 52.407, 52.407, 143935.492663143, 29.6573986311707, -32.4846012462106, -33.3851284493674, 154.841925589091, -49439.6832514169, 0, ]
  - [16500, -49442.6911437914, 605.233455530646, -48837.4576882607, 401.465298566633, 52.407, 52.407, 52.407, 143935.492663143, 77.632506110613, 2.96639537024554, -52.5037979960075, 282.434920957603, -49442.6911437914, 0, ]
  - [16600, -49440.6683671597, 606.498781135328, -48834.1695860244, 402.304618199456, 52.407, 52.407, 52.407, 143935.492663143, -17.2249027672182, 23.7306398685815, 50.4944096431457, -125.899757813382, -49440.6683671597, 0, ]
  - [16700, -49438.3562106747, 603.513352355386, -48834.8428583193, 400.324314490966, 52.407, 52.407, 52.407, 143935.492663143, 275.232633579722, 453.064776132553, 235.812808307151, 136.820316299464, -49438.3562106747, 0, ]
  - [16800, -49444.1026742283, 608.298417472581, -48835.8042567557, 403.498358454301, 52.407, 52.407, 52.407, 143935.492663143, -472.499063700387, -479.511279595125, -570.390820668521, -367.595090837516, -49444.1026742283, 0, ]
  - [16900, -49441.527057923, 602.832337581228, -48838.6947203418, 399.872581697385, 52.407, 52.407, 52.407, 143935.492663143, 386.944133626148, 481.51735312191, 202.147535953596, 477.167511802939, -49441.527057923, 0, ]
  - [17000, -49433.5293711856, 599.500399556283, -48834.0289716293, 397.662430421433, 52.407, 52.407, 52.407, 143935.492663143, 1268.27320450162, 1510.41088496543, 1101.51427060686, 1192.89445793257, -49433.5293711856, 0, ]
  - [17100, -49443.049883326, 603.204240357674, -48839.8456429684, 400.119273379445, 52.407, 52.407, 52.407, 143935.492663143, -152.443920299708, -165.211669554251, -391.804433859438, 99.6843425145694, -49443.049883326, 0, ]
  - [17200, -49442.2132111153, 599.30549150691, -48842.9077196084, 397.533143420657, 52.407, 52.407, 52.407, 143935.492663143, 98.4023227788905, 153.35205704629, 62.0199669360255, 79.8349443543577, -49442.2132111153, 0, ]
  - [17300, -49442.8546513348, 601.042083203324, -48841.8125681314, 398.685064712381, 52.407, 52.407, 52.407, 143935.492663143, 152.795375165795, 373.871584882934, -9.58860892291423, 94.1031495373682, -49442.8546513348, 0, ]
  - [17400, -49441.709157778, 595.417474881025, -48846.291682897, 394.954132393955, 52.407, 52.407, 52.407, 143935.492663143, -12.0467993959285, -52.6082866411536, -123.93033497298, 140.398223426352, -49441.709157778, 0, ]
  - [17500, -49441.2896233151, 592.161227675386, -48849.1283956398, 392.794188582732, 52.407, 52.407, 52.407, 143935.492663143, 227.157780138759, 202.459300491981, 15.466202734524, 463.547837189771, -49441.2896233151, 0, ]
  - [17600, -49444.56331429, 607.340534297681, -48837.2227799923, 402.862972470118, 52.407, 52.407, 52.407, 143935.492663143, -117.374508964737, -250.603391998358, -163.085990129905, 61.5658552340519, -49444.56331429, 0, ]
  - [17700, -49442.8914822032, 598.032490893578, -48844.8589913096, 396.688732777729, 52.407, 52.407, 52.407, 143935.492663143, 176.910602170268, -126.608342410484, 230.116465319141, 427.223683602147, -49442.8914822032, 0, ]
  - [17800, -49444.0971725702, 605.920843217433, -48838.1763293527, 401.921258660024, 52.407, 52.407, 52.407, 143935.492663143, -294.483260404194, -49.2675988831045, -598.066811232864, -236.115371096611, -49444.0971725702, 0, ]
  - [17900, -49445.3981397179, 603.549168663955, -48841.848971054, 400.348072273822, 52.407, 52.407, 52.407, 143935.492663143, -434.652612069985, -491.043137764477, -132.02386106525, -680.890837380227, -49445.3981397179, 0, ]
  - [18000, -49445.064885808, 599.48508517419, -48845.5798006338, 397.652272038873, 52.407, 52.407, 52.407, 143935.492663143, -100.69717074778, -350.297846270541, 251.845237809166, -203.638903781965, -49445.064885808, 0, ]
  - [18100, -49440.7269565847, 601.894306353892, -48838.8326502308, 399.250363967506, 52.407, 52.407, 52.407, 143935.492663143, 301.456116271722, 264.20832064845, 205.974270092282, 434.185758074432, -49440.7269565847, 0, ]
  - [18200, -49443.773112546, 606.578558711, -48837.194553835, 402.357536503861, 52.407, 52.407, 52.407, 143935.492663143, -276.016359693802, -201.453141060689, -265.593779138366, -361.002158882356, -49443.773112546, 0, ]
  - [18300, -49447.2735838963, 602.195450986468, -48845.0781329099, 399.450120142126, 52.407, 52.407, 52.407, 143935.492663143, -625.713887083078, -898.881081201575, -359.854773145188, -618.405806902469, -49447.2735838963, 0, ]
  - [18400, -49446.6952974294, 594.82210688458, -48851.8731905448, 394.559211081747, 52.407, 52.407, 52.407, 143935.492663143, -670.369462397105, -764.729301673609, -606.143981949859, -640.235103567848, -49446.6952974294, 0, ]
  - [18500, -49444.5546061815, 601.245546949131, -48843.3090592324, 398.820026903766, 52.407, 52.407, 52.407, 143935.492663143, -254.609306993401, -304.627717831506, -323.835812482563, -135.364390666135, -49444.5546061815, 0, ]
  - [18600, -49442.5012214531, 601.617850447543, -48840.8833710056, 399.06698439394, 52.407, 52.407, 52.407, 143935.492663143, -165.435302326598, -240.726928150522, -220.556600335476, -35.0223784937945, -49442.5012214531, 0, ]
  - [18700, -49439.5710960301, 598.623296409444, -48840.9477996206, 397.080627691425, 52.407, 52.407, 52.407, 143935.492663143, 388.661490996611, 655.89576747353, 32.2245674292866, 477.864138087015, -49439.5710960301, 0, ]
  - [18800, -49444.202228423, 600.044506927769, -48844.1577214952, 398.023349379811, 52.407, 52.407, 52.407, 143935.492663143, -418.608778027057, -285.487020283771, -527.541824035954, -442.797489761445, -49444.202228423, 0, ]
  - [18900, -49445.3265348768, 596.773307656987, -48848.5532272198, 395.853487519211, 52.407, 52.407, 52.407, 143935.492663143, -453.885558475841, -434.237042609272, -459.450525179074, -467.969107639177, -49445.3265348768, 0, ]
  - [19000, -49447.4422747026, 604.954821706654, -48842.4874529959, 401.280474330105, 52.407, 52.407, 52.407, 143935.492663143, -653.78614149269, -565.664370895162, -697.497430909908, -698.196622673, -49447.4422747026, 0, ]
  - [19100, -49445.5835545099, 598.653639911266, -48846.9299145986, 397.100755235446, 52.407, 52.407, 52.407, 143935.492663143, -470.063633961564, -732.338361529125, -305.367473353514, -372.485067002055, -49445.5835545099, 0, ]
  - [19200, -49438.683842265, 605.87319147873, -48832.8106507863, 401.889650163615, 52.407, 52.407, 52.407, 143935.492663143, 488.054448063582, 341.081714258623, 534.674390484727, 588.407239447397, -49438.683842265, 0, ]
  - [19300, -49436.1185053962, 598.843210175482, -48837.2752952207, 397.226501560318, 52.407, 52.407, 52.407, 143935.492663143, 536.782932964274, 420.367761185106, 629.714017265234, 560.267020442483, -49436.1185053962, 0, ]
  - [19400, -49444.5606607222, 602.910280509306, -48841.6503802128, 399.924283037763, 52.407, 52.407, 52.407, 143935.492663143, -659.67251185777, -673.967894551133, -708.957643471151, -596.091997551025, -49444.5606607222, 0, ]
  - [19500, -49441.3455403494, 611.560942979302, -48829.7845973701, 405.662466807315, 52.407, 52.407, 52.407, 143935.492663143, 193.225082836132, 162.290341741925, 86.7294730814283, 330.655433685041, -49441.3455403494, 0, ]
  - [19600, -49440.615201432, 604.062436149865, -48836.5527652822, 400.688534425397, 52.407, 52.407, 52.407, 143935.492663143, 176.501215614182, 150.254450068404, -71.8786767519258, 451.12787352607, -49440.615201432, 0, ]
  - [19700, -49438.8134582651, 599.498128051664, -48839.3153302134, 397.660923680073, 52.407, 52.407, 52.407, 143935.492663143, 632.515957554421, 598.172730318009, 842.006278159622, 457.368864185634, -49438.8134582651, 0, ]
  - [19800, -49444.2773939137, 599.325269739738, -48844.952124174, 397.546262778279, 52.407, 52.407, 52.407, 143935.492663143, -233.296668761915, -370.503180978897, -271.714499876503, -57.6723254303449, -49444.2773939137, 0, ]
  - [19900, -49442.1214515552, 594.805675133284, -48847.3157764219, 394.548311522446, 52.407, 52.407, 52.407, 143935.492663143, -83.5089122651918, -80.3337078176174, -70.2876274676903, -99.9054015102652, -49442.1214515552, 0, ]
  - [20000, -49439.4652820944, 597.858451283355, -48841.606830811, 396.573288293551, 52.407, 52.407, 52.407, 143935.492663143, 383.401683619181, 455.675113391209, 352.164266517809, 342.365670948527, -50044.289372915, 0, ]
...
Loop time of 24.2041 on 64 procs for 20000 steps with 11664 atoms

Performance: 71.393 ns/day, 0.336 hours/ns, 826.305 timesteps/s, 9.638 Matom-step/s
62.2% CPU use with 64 MPI tasks x 1 OpenMP threads

MPI task timing breakdown:
Section |  min time  |  avg time  |  max time  |%varavg| %total
---------------------------------------------------------------
Pair    | 11.481     | 13.116     | 14.929     |  18.2 | 54.19
Neigh   | 0          | 0          | 0          |   0.0 |  0.00
Comm    | 6.0873     | 7.3113     | 8.6782     |  19.9 | 30.21
Output  | 0.034701   | 0.043042   | 0.11541    |   4.4 |  0.18
Modify  | 2.5745     | 3.1527     | 3.5727     |  12.9 | 13.03
Other   |            | 0.5813     |            |       |  2.40

Nlocal:         182.25 ave         250 max         128 min
Histogram: 1 6 15 0 18 11 6 6 0 1
Nghost:        1275.75 ave        1330 max        1208 min
Histogram: 1 0 6 6 9 20 0 15 6 1
Neighs:           8019 ave       11000 max        5632 min
Histogram: 1 6 10 9 14 11 6 4 2 1

Total # of neighbors = 513216
Ave neighs/atom = 44
Neighbor list builds = 0
Dangerous builds = 0
fix fpf all print 1 "${dE} ${lambda}" title "# dE [eV] lambda" screen no file data/forward_${T}K.dat
fix fpf all print 1 "${dE} ${lambda}" title "# dE [eV] lambda" screen no file data/forward_400K.dat
run ${t}
run 100000
Per MPI rank memory allocation (min/avg/max) = 3.731 | 3.734 | 3.736 Mbytes
---
keywords: ['Step', 'PotEng', 'KinEng', 'TotEng', 'Temp', 'Lx', 'Ly', 'Lz', 'Volume', 'Press', 'Pxx', 'Pyy', 'Pzz', 'v_dE', 'v_lambda', ]
data:
  - [20000, -49439.4652820944, 597.858451283355, -48841.606830811, 396.573288293551, 52.407, 52.407, 52.407, 143935.492663143, 383.401683619192, 455.67511339122, 352.164266517815, 342.365670948538, -50044.289372915, 0, ]
  - [20100, -49440.9513885977, 605.427154987977, -48835.5242336097, 401.593783880455, 52.407, 52.407, 52.407, 143935.492663143, -2.32267196165067, -47.8451520019596, 7.53846500393689, 33.3386711130682, -50048.0055585722, 1.2558053968507e-13, ]
  - [20200, -49437.7060854733, 596.53601840486, -48841.1700670684, 395.69608808998, 52.407, 52.407, 52.407, 143935.492663143, 535.54285906486, 544.895474376098, 454.162606579986, 607.570496238493, -50049.4448271886, 4.00518903939584e-12, ]
  - [20300, -49443.6825503464, 596.591649492835, -48847.0909008536, 395.732989472644, 52.407, 52.407, 52.407, 143935.492663143, -43.2314459934794, -168.864574032624, -81.016176812287, 120.18641286447, -50039.8129930574, 3.03129989146628e-11, ]
  - [20400, -49441.6669562736, 600.544589226746, -48841.1223670469, 398.355065493044, 52.407, 52.407, 52.407, 143935.492663143, -13.5328520818005, -150.546286539332, 136.05217914541, -26.1044488514783, -50036.6277121725, 1.2731250673451e-10, ]
  - [20500, -49441.7440640737, 601.664753940312, -48840.0793101333, 399.098096561578, 52.407, 52.407, 52.407, 143935.492663143, 361.669512362443, 221.169430496303, 60.5072064993624, 803.331900091662, -50036.0435623683, 3.87229564589844e-10, ]
  - [20600, -49446.8774724411, 596.582032086324, -48850.2954403548, 395.726610025274, 52.407, 52.407, 52.407, 143935.492663143, -654.89584686634, -459.933767279232, -485.858996641643, -1018.89477667815, -50037.2083746533, 9.60331117066399e-10, ]
  - [20700, -49449.6151297983, 596.183784832059, -48853.4313449663, 395.462443443972, 52.407, 52.407, 52.407, 143935.492663143, -963.7642800713, -883.190813113854, -990.886529200925, -1017.21549789912, -50043.7289580303, 2.06871232013244e-09, ]
  - [20800, -49435.8485639537, 600.492338994556, -48835.3562249592, 398.320406709933, 52.407, 52.407, 52.407, 143935.492663143, 665.890176745434, 756.634247770872, 664.253327625606, 576.782954839827, -50041.1045715659, 4.0197947066522e-09, ]
  - [20900, -49435.4802700804, 599.988205137951, -48835.4920649424, 397.986003105159, 52.407, 52.407, 52.407, 143935.492663143, 746.84393342067, 1062.52919934788, 367.449590931516, 810.553009982618, -50039.9049936049, 7.21953805066232e-09, ]
  - [21000, -49444.277744266, 601.984145159016, -48842.293599107, 399.309956117266, 52.407, 52.407, 52.407, 143935.492663143, -251.284622369104, -179.794402499309, -254.520162030306, -319.539302577695, -50045.4483552802, 1.218536857e-08, ]
  - [21100, -49437.5191306704, 610.770817126184, -48826.7483135442, 405.138358120611, 52.407, 52.407, 52.407, 143935.492663143, 630.972087518914, 745.460092534639, 756.526216189997, 390.929953832106, -50049.41944161, 1.95588260943488e-08, ]
  - [21200, -49439.0764232618, 604.071992193747, -48835.004431068, 400.694873169522, 52.407, 52.407, 52.407, 143935.492663143, 374.425554559043, 409.305794134407, 425.205943329, 288.764926213723, -50052.7243428455, 3.01179328132704e-08, ]
  - [21300, -49437.4570012624, 597.053945788483, -48840.403055474, 396.039641259096, 52.407, 52.407, 52.407, 143935.492663143, 433.203773409068, 435.348550831004, 340.493129629402, 523.769639766798, -50057.6691763561, 4.47892862063179e-08, ]
  - [21400, -49445.7893773522, 605.66248466582, -48840.1268926864, 401.749883478906, 52.407, 52.407, 52.407, 143935.492663143, -71.0780685895687, -14.4112692200177, -384.472909031928, 185.649972483242, -50037.5927124526, 6.46598787448807e-08, ]
  - [21500, -49437.8258623283, 607.473086277162, -48830.3527760511, 402.950897252748, 52.407, 52.407, 52.407, 143935.492663143, 797.002490668175, 801.698561098986, 663.380959611153, 925.927951294388, -50036.3812023026, 9.09886469429883e-08, ]
  - [21600, -49442.2321554109, 599.558345465395, -48842.6738099455, 397.700867278302, 52.407, 52.407, 52.407, 143935.492663143, -89.287830063858, -27.1443845983169, -66.1993510427925, -174.519754550466, -50041.9476298429, 1.25217752321905e-07, ]
  - [21700, -49444.1230439762, 595.805586202887, -48848.3174577734, 395.211575577712, 52.407, 52.407, 52.407, 143935.492663143, -196.412081369848, -216.818216932601, -252.351751010967, -120.066276165977, -50037.7818944149, 1.68983596840977e-07, ]
  - [21800, -49446.9957487766, 601.956546516643, -48845.0392022599, 399.291649301774, 52.407, 52.407, 52.407, 143935.492663143, -697.334953536541, -504.130752859697, -778.006643829724, -809.867463920202, -50039.7280466906, 2.24127575334849e-07, ]
  - [21900, -49436.003971903, 603.012983292757, -48832.9909886102, 399.992408160795, 52.407, 52.407, 52.407, 143935.492663143, 1028.95173784096, 1289.15494733979, 985.52100317012, 812.179263012984, -50035.6741000352, 2.92706567484841e-07, ]
  - [22000, -49443.7702050828, 601.11726211516, -48842.6529429677, 398.734932617088, 52.407, 52.407, 52.407, 143935.492663143, -82.8137915843023, -164.778031220507, -220.996727621852, 137.333384089453, -50028.7386299986, 3.7700317184e-07, ]
  - [22100, -49439.6824469079, 605.139154637319, -48834.5432922706, 401.40274661094, 52.407, 52.407, 52.407, 143935.492663143, 324.893446430718, 340.040703623654, 399.128788415422, 235.510847253077, -50036.4401700324, 4.79535684391045e-07, ]
  - [22200, -49447.1841710481, 599.771354997528, -48847.4128160505, 397.842161409738, 52.407, 52.407, 52.407, 143935.492663143, -353.765903830244, -453.866744734123, -216.13313553475, -391.297831221858, -50038.4124772155, 6.03067824188202e-07, ]
  - [22300, -49445.1663322687, 601.78935377032, -48843.3769784984, 399.180746500206, 52.407, 52.407, 52.407, 143935.492663143, -598.599105383883, -388.493935054516, -488.331270218361, -918.972110878768, -50051.3999581624, 7.50618208481703e-07, ]
  - [22400, -49438.4331766151, 606.352822552211, -48832.0803540629, 402.207800507681, 52.407, 52.407, 52.407, 143935.492663143, 640.340214776794, 564.674614113671, 603.381957611758, 752.964072604956, -50062.510324874, 9.25469579851522e-07, ]
  - [22500, -49439.6807277907, 606.671168776715, -48833.009559014, 402.418966894634, 52.407, 52.407, 52.407, 143935.492663143, 103.988464122595, 234.660141173287, -163.70621660855, 241.011467803052, -50058.9210823147, 1.13117778778076e-06, ]
  - [22600, -49434.1165505527, 601.712103727688, -48832.404446825, 399.129504766713, 52.407, 52.407, 52.407, 143935.492663143, 678.369134035656, 811.366670022221, 600.403167110319, 623.337564974427, -50056.3510712354, 1.37158052711496e-06, ]
  - [22700, -49444.0177750472, 610.062022861437, -48833.9557521858, 404.668198550748, 52.407, 52.407, 52.407, 143935.492663143, -230.21084465621, -78.0448933159647, -201.4882616646, -411.099378988061, -50034.5587953317, 1.65080583583745e-06, ]
  - [22800, -49439.5457011478, 597.034336275387, -48842.5113648724, 396.026633817161, 52.407, 52.407, 52.407, 143935.492663143, 336.101862216702, 427.830213399381, 356.509543110104, 223.965830140625, -50044.0627690299, 1.97328035457892e-06, ]
  - [22900, -49442.9940324104, 602.64497752403, -48840.3490548863, 399.748301453762, 52.407, 52.407, 52.407, 143935.492663143, -267.413420604923, 126.329170116318, -614.448695390395, -314.120736540692, -50044.6297921915, 2.343737350267e-06, ]
  - [23000, -49438.8881484756, 607.129031926792, -48831.7591165488, 402.722678073467, 52.407, 52.407, 52.407, 143935.492663143, 788.032195322354, 846.944003350303, 656.52696190259, 860.625620714166, -50040.8184329062, 2.76722450631e-06, ]
  - [23100, -49434.9199850463, 600.656102903861, -48834.2638821424, 398.42903508489, 52.407, 52.407, 52.407, 143935.492663143, 614.38108948878, 454.507139751469, 660.785943920384, 727.850184794484, -50054.0357809728, 3.2491114816967e-06, ]
  - [23200, -49441.5556838078, 603.302856033676, -48838.2528277742, 400.184687429921, 52.407, 52.407, 52.407, 143935.492663143, 78.2648667669896, 345.317133066644, -109.38263734085, -1.13989542482501, -50055.8353384777, 3.79509724138202e-06, ]
  - [23300, -49446.3181126929, 614.4732685793, -48831.8448441136, 407.594279491895, 52.407, 52.407, 52.407, 143935.492663143, -471.07330607414, -277.180576553643, -453.314157164012, -682.725184504766, -50064.0551546947, 4.41121716031674e-06, ]
  - [23400, -49442.5981498867, 604.525807069861, -48838.0723428168, 400.995899034943, 52.407, 52.407, 52.407, 143935.492663143, -177.795795744514, 35.4566869876722, -118.41963415439, -450.424440066822, -50062.1663198127, 5.10384990346721e-06, ]
  - [23500, -49441.2159474158, 600.01051554475, -48841.2054318711, 398.000802112129, 52.407, 52.407, 52.407, 143935.492663143, 493.436518785538, 630.178274356541, 483.848440770577, 366.282841229492, -50057.2122014468, 5.87972408415916e-06, ]
  - [23600, -49440.2849666191, 602.77208495147, -48837.5128816677, 399.832614739554, 52.407, 52.407, 52.407, 143935.492663143, 425.782855818367, 274.112579195781, 369.298954070696, 633.937034188624, -50058.4010599401, 6.74592470306796e-06, ]
  - [23700, -49440.3563747736, 598.604476227176, -48841.7518985464, 397.068143830819, 52.407, 52.407, 52.407, 143935.492663143, 416.394655067182, 201.150431484537, 566.110333769839, 481.923199947168, -50046.5394081137, 7.70989937016563e-06, ]
  - [23800, -49446.5044695416, 602.5701302377, -48843.9343393039, 399.698653523895, 52.407, 52.407, 52.407, 143935.492663143, -584.742179351408, -682.866603905564, -528.475607307716, -542.884326840941, -50050.7518226129, 8.77946431192315e-06, ]
  - [23900, -49439.4516803835, 607.28383731186, -48832.1678430716, 402.825364052849, 52.407, 52.407, 52.407, 143935.492663143, 409.520614586878, 60.7558963834382, 566.099328386269, 601.706618990927, -50045.067925795, 9.96281016605489e-06, ]
  - [24000, -49442.9712041617, 603.066614732358, -48839.9045894293, 400.027983130611, 52.407, 52.407, 52.407, 143935.492663143, 133.566548057134, 173.450323961408, -1.30504698199681, 228.554367191992, -50043.7592625385, 1.126850756608e-05, ]
  - [24100, -49445.7117760749, 602.114040450493, -48843.5977356244, 399.396118657521, 52.407, 52.407, 52.407, 143935.492663143, -358.885363550338, -517.322184734579, -187.883536395969, -371.450369520463, -50042.7717982115, 1.2705512517964e-05, ]
  - [24200, -49441.8430673049, 606.039064103455, -48835.8040032014, 401.999677298105, 52.407, 52.407, 52.407, 143935.492663143, 97.8616360357024, 83.8057636515881, 48.3310032331617, 161.448141222358, -50037.4484944751, 1.42831715710919e-05, ]
  - [24300, -49439.2657691668, 604.732542930747, -48834.5332262361, 401.133031695665, 52.407, 52.407, 52.407, 143935.492663143, 335.374091139099, 340.778404797521, 498.621223635591, 166.722644984183, -50044.3315002486, 1.60112267858132e-05, ]
  - [24400, -49441.4411427005, 606.687752123349, -48834.7533905772, 402.429967010618, 52.407, 52.407, 52.407, 143935.492663143, -189.999879232458, -271.52483825695, 177.251967692562, -475.726767132985, -50062.2660546718, 1.78998204997854e-05, ]
  - [24500, -49442.6882242929, 607.31806294499, -48835.3701613479, 402.848066704029, 52.407, 52.407, 52.407, 143935.492663143, -8.16294750138886, -68.7144993498718, 115.65105586904, -71.4253990233352, -50053.9680483462, 1.99594998953344e-05, ]
  - [24600, -49440.0221223377, 610.192500931807, -48829.8296214059, 404.754747661672, 52.407, 52.407, 52.407, 143935.492663143, 374.144076149222, 353.5763393106, 442.000886132201, 326.855003004865, -50040.0031367313, 2.2201221370035e-05, ]
  - [24700, -49434.3666059156, 598.74400334374, -48835.6226025718, 397.160695382617, 52.407, 52.407, 52.407, 143935.492663143, 1069.37708958188, 959.744354478533, 1127.66097314665, 1120.72594112045, -50050.5986278697, 2.46363547127047e-05, ]
  - [24800, -49439.0386343591, 604.24507061741, -48834.7935637417, 400.809680076503, 52.407, 52.407, 52.407, 143935.492663143, 387.760075621457, 353.616680039774, 405.153659981499, 404.509886843097, -50052.529438519, 2.7276687086994e-05, ]
  - [24900, -49437.5784355978, 602.10940012674, -48835.469035471, 399.393040623839, 52.407, 52.407, 52.407, 143935.492663143, 176.913370122343, 315.291417716148, -4.94658895000095, 220.395281600881, -50050.130920314, 3.01344268247409e-05, ]
  - [25000, -49444.4136430873, 602.741083919087, -48841.6725591682, 399.81205104036, 52.407, 52.407, 52.407, 143935.492663143, -314.405467690904, -435.220499462067, -348.833758138716, -159.162145471927, -50050.2294138258, 3.322220703125e-05, ]
  - [25100, -49446.7546502703, 595.78269698268, -48850.9719532877, 395.19639263047, 52.407, 52.407, 52.407, 143935.492663143, -641.817037109662, -670.237484166301, -415.132843899282, -840.080783263405, -50051.4375740424, 3.6553089004642e-05, ]
  - [25200, -49436.9480159338, 608.280610433338, -48828.6674055005, 403.486546634811, 52.407, 52.407, 52.407, 143935.492663143, 875.475986214753, 800.839222376848, 962.145859638537, 863.442876628877, -50042.2618482805, 4.01405654714096e-05, ]
  - [25300, -49445.4409700097, 606.697182857338, -48838.7437871523, 402.436222633802, 52.407, 52.407, 52.407, 143935.492663143, -332.039013726963, -332.2427841789, -429.203099074367, -234.671157927621, -50037.6210042506, 4.39985636403039e-05, ]
  - [25400, -49446.0098134562, 601.277370453202, -48844.732443003, 398.841136167384, 52.407, 52.407, 52.407, 143935.492663143, -261.98653456397, -209.493087497791, -149.540922052395, -426.925594141723, -50032.8027815459, 4.81414480766634e-05, ]
  - [25500, -49445.8157975668, 591.175364821459, -48854.6404327453, 392.140243032662, 52.407, 52.407, 52.407, 143935.492663143, -196.064417644274, -76.5553381131533, -225.460620686765, -286.1772941329, -50037.710044733, 5.25840233992879e-05, ]
  - [25600, -49438.9470573068, 596.431281903471, -48842.5157754033, 395.626613954972, 52.407, 52.407, 52.407, 143935.492663143, 406.292033500416, 365.341274265254, 260.164170712866, 593.370655523128, -50042.4157317898, 5.7341536801945e-05, ]
  - [25700, -49440.4338972104, 603.122502063458, -48837.3113951469, 400.065054485245, 52.407, 52.407, 52.407, 143935.492663143, 214.891101402145, -36.405930596488, 513.984611584629, 167.094623218295, -50052.1017598866, 6.24296804015908e-05, ]
  - [25800, -49449.0133622593, 602.194187499081, -48846.8191747602, 399.449282041825, 52.407, 52.407, 52.407, 143935.492663143, -713.256431295832, -945.505005567445, -491.555535872597, -702.708752447453, -50057.9931029891, 6.78645934153687e-05, ]
  - [25900, -49437.856390462, 591.17148771792, -48846.684902744, 392.137671260537, 52.407, 52.407, 52.407, 143935.492663143, 279.696336318777, 388.313115713474, 110.330255932754, 340.445637310105, -50049.3335867264, 7.36628641684442e-05, ]
  - [26000, -49440.8031171201, 600.45947122451, -48840.3436458956, 398.298604760629, 52.407, 52.407, 52.407, 143935.492663143, 252.59118878006, 178.302245846656, 91.546979334, 487.924341159524, -50060.2216347536, 7.98415319347201e-05, ]
  - [26100, -49442.6814927833, 601.343635390534, -48841.3378573928, 398.885091227382, 52.407, 52.407, 52.407, 143935.492663143, -66.8286321522077, -77.7043421234993, -58.9650302983919, -63.8165240347333, -50040.7293718097, 8.64180886124637e-05, ]
  - [26200, -49448.6252556146, 604.017581758391, -48844.6076738562, 400.65878147387, 52.407, 52.407, 52.407, 143935.492663143, -799.313344681008, -693.492824684916, -689.214124157631, -1015.23308520047, -50041.3288507775, 9.34104802368714e-05, ]
  - [26300, -49437.9802716488, 604.984838272612, -48832.9954333762, 401.300385010032, 52.407, 52.407, 52.407, 143935.492663143, 762.74465688449, 884.421622083031, 609.11713682507, 794.695211745368, -50033.9473486905, 0.000100837108331577, ]
  - [26400, -49447.8610257378, 602.020128029135, -48845.8408977087, 399.333824384236, 52.407, 52.407, 52.407, 143935.492663143, -735.614870766109, -516.320696316914, -856.457054725602, -834.066861255811, -50034.2823249522, 0.000108716831101108, ]
  - [26500, -49444.4845320316, 602.849756057515, -48841.6347759741, 399.884135774113, 52.407, 52.407, 52.407, 143935.492663143, -368.129242005576, 128.747541642253, -706.652904189233, -526.482363469746, -50039.7334614667, 0.000117068964466276, ]
  - [26600, -49443.0322434653, 604.79851830529, -48838.23372516, 401.176794681992, 52.407, 52.407, 52.407, 143935.492663143, -194.487251364414, -159.396814379578, -257.226055409727, -166.838884303938, -50036.9242725048, 0.000125913282944476, ]
  - [26700, -49437.9821079445, 602.959442647538, -48835.0226652969, 399.956893416986, 52.407, 52.407, 52.407, 143935.492663143, 563.192980219946, 941.418213083238, 572.375791493705, 175.784936082895, -50038.5784816974, 0.000135270020376872, ]
  - [26800, -49443.0580901851, 595.308238696437, -48847.7498514887, 394.881673515386, 52.407, 52.407, 52.407, 143935.492663143, 160.497782142533, 404.604963584558, 236.492408496462, -159.604025653418, -50043.2364854602, 0.000145159870504403, ]
  - [26900, -49442.4335710458, 608.916261057114, -48833.5173099887, 403.908188342034, 52.407, 52.407, 52.407, 143935.492663143, 147.313369139096, 44.0572030410368, 199.808732015458, 198.074172360792, -50041.0899654421, 0.000155603987394582, ]
  - [27000, -49441.809159622, 603.155102756651, -48838.6540568654, 400.086679276318, 52.407, 52.407, 52.407, 143935.492663143, 123.072694273066, 296.242203416123, -359.005918914155, 431.98179831723, -50041.2729254325, 0.00016662398572099, ]
  - [27100, -49443.5589305847, 606.732069963624, -48836.8268606211, 402.459364055369, 52.407, 52.407, 52.407, 143935.492663143, -165.959242541464, 82.0192387337238, -358.09574407092, -221.801222287195, -50040.53166154, 0.000178241940897419, ]
  - [27200, -49443.0207911301, 603.561703973053, -48839.4590871571, 400.35638723322, 52.407, 52.407, 52.407, 143935.492663143, -393.829096504643, -384.420032185424, -511.98753277241, -285.079724556094, -50048.2160658903, 0.000190480389068545, ]
  - [27300, -49442.4953413137, 596.238237508477, -48846.2571038052, 395.498563159094, 52.407, 52.407, 52.407, 143935.492663143, -1.72653221335273, -87.3122063177907, 14.0830019100119, 68.0496077677213, -50052.8702846768, 0.000203362326959055, ]
  - [27400, -49436.5827337127, 607.31881582562, -48829.263917887, 402.848566107101, 52.407, 52.407, 52.407, 143935.492663143, 701.663196422161, 727.465933809782, 366.016643999916, 1011.50701145678, -50052.9712640582, 0.000216911211583103, ]
  - [27500, -49440.7489744851, 601.499290286967, -48839.2496841981, 398.988340707229, 52.407, 52.407, 52.407, 143935.492663143, 241.873375515212, 117.551362583343, 126.347870296276, 481.720893666018, -50040.6361744954, 0.000231150959815979, ]
  - [27600, -49441.5600248471, 608.767033610417, -48832.7929912367, 403.809202337716, 52.407, 52.407, 52.407, 143935.492663143, -151.062600034912, -75.4547318986214, -255.812917068228, -121.92015113789, -50048.2685006743, 0.00024610594782986, ]
  - [27700, -49440.1669133517, 607.866006238232, -48832.3009071134, 403.211530117707, 52.407, 52.407, 52.407, 143935.492663143, 561.018319370448, 548.806510085594, 854.098903916008, 280.14954410974, -50035.8810107882, 0.000261801010395495, ]
  - [27800, -49437.5498705127, 613.692811485095, -48823.8570590276, 407.076584315794, 52.407, 52.407, 52.407, 143935.492663143, 307.964203839856, 191.762076341307, 407.529999119874, 324.600536058388, -50036.3714253862, 0.000278261440051671, ]
  - [27900, -49443.3194348308, 605.270957581128, -48838.0484772496, 401.490174540947, 52.407, 52.407, 52.407, 143935.492663143, 44.2487750603537, 377.166067170118, -81.0660505698094, -163.353691419248, -50037.2643143571, 0.000295512986144304, ]
  - [28000, -49443.6978100489, 599.592757874778, -48844.1050521741, 397.723693822474, 52.407, 52.407, 52.407, 143935.492663143, -137.614408254507, -298.096088022427, -219.983751371101, 105.236614630011, -50040.2451512764, 0.00031358185373696, ]
  - [28100, -49440.1293905046, 597.531892281227, -48842.5974982234, 396.356674181937, 52.407, 52.407, 52.407, 143935.492663143, 196.752646638652, 238.502520228104, 182.942821748988, 168.812597938863, -50039.3648765071, 0.000332494702394641, ]
  - [28200, -49443.7250374269, 601.955904250517, -48841.7691331763, 399.291223271852, 52.407, 52.407, 52.407, 143935.492663143, -66.5192157604162, -215.23919539884, 150.503907274398, -134.822359156808, -50042.3925462886, 0.000352278644842627, ]
  - [28300, -49445.1676227555, 604.671727518337, -48840.4958952372, 401.092691431132, 52.407, 52.407, 52.407, 143935.492663143, -318.375787326286, -437.748233700172, -388.376715279705, -129.002412998982, -50037.0771916779, 0.000372961245502164, ]
  - [28400, -49440.9390858106, 604.791749116426, -48836.1473366942, 401.172304523024, 52.407, 52.407, 52.407, 143935.492663143, 69.964974343797, -271.581941393552, 344.812518101072, 136.66434632387, -50025.7038895212, 0.000394570518904788, ]
  - [28500, -49439.9423799461, 600.751422150487, -48839.1909577956, 398.492262537794, 52.407, 52.407, 52.407, 143935.492663143, 479.21054865995, 259.452919922464, 709.94938290809, 468.229343149296, -50025.6089021261, 0.000417134927987054, ]
  - [28600, -49445.8376018665, 607.086969623652, -48838.7506322429, 402.694777178475, 52.407, 52.407, 52.407, 143935.492663143, -297.721534941792, -164.307589800831, -440.548327821445, -288.308687203102, -50029.4597722842, 0.000440683382267422, ]
  - [28700, -49447.9934558056, 607.096112955798, -48840.8973428498, 402.700842161394, 52.407, 52.407, 52.407, 143935.492663143, -587.569820945263, -415.937690371032, -636.304388524556, -710.467383940202, -50027.3285161641, 0.000465245235907057, ]
  - [28800, -49450.0210081544, 602.81937709646, -48847.2016310579, 399.863984709166, 52.407, 52.407, 52.407, 143935.492663143, -1108.27649569785, -918.65334373626, -1359.8850726787, -1046.29107067859, -50021.194100885, 0.000490850285656287, ]
  - [28900, -49444.7461160282, 600.399593178886, -48844.3465228493, 398.258886273086, 52.407, 52.407, 52.407, 143935.492663143, -173.1504062956, -351.407959626258, -261.133531005953, 93.0902717454105, -50027.632347981, 0.000517528768688429, ]
  - [29000, -49440.9544085532, 606.54375611788, -48834.4106524353, 402.334451141824, 52.407, 52.407, 52.407, 143935.492663143, 1.99261701187237, 162.564196897935, -155.861697266294, -0.724648596023316, -50036.8930430422, 0.00054531136032273, ]
  - [29100, -49443.2801725612, 607.710427146372, -48835.5697454148, 403.108330920779, 52.407, 52.407, 52.407, 143935.492663143, 149.236905875022, 313.59568085915, 88.6816176258478, 45.4334191400693, -50031.6574244891, 0.000574229171638096, ]
  - [29200, -49442.8645424984, 598.678485160019, -48844.1860573384, 397.117235661498, 52.407, 52.407, 52.407, 143935.492663143, 5.75738034298212, -130.284121430755, 190.360406157669, -42.8041436979674, -50030.4990242507, 0.000604313746979337, ]
  - [29300, -49442.8023298934, 604.291698731307, -48838.5106311621, 400.840609578989, 52.407, 52.407, 52.407, 143935.492663143, 121.8967561259, 294.495348176031, -7.64357815898752, 78.8384983606605, -50033.8465809799, 0.000635597061357593, ]
  - [29400, -49434.438432979, 603.517163901374, -48830.9212690776, 400.326842777257, 52.407, 52.407, 52.407, 143935.492663143, 750.220655216319, 694.711412553632, 949.484170572397, 606.466382522928, -50043.6746724836, 0.000668111517746635, ]
  - [29500, -49440.6907150366, 600.392509670791, -48840.2982053658, 398.254187618928, 52.407, 52.407, 52.407, 143935.492663143, 222.707630193778, 483.300543011221, 370.416400113096, -185.594052542983, -50041.0627469286, 0.000701889944276683, ]
  - [29600, -49443.0376613466, 603.657352832143, -48839.3803085145, 400.419833325669, 52.407, 52.407, 52.407, 143935.492663143, -137.412862848603, -182.79065608397, 193.212906156235, -422.660838618076, -50043.7638325379, 0.000736965591327429, ]
  - [29700, -49440.8802342339, 602.052174820714, -48838.8280594132, 399.355081759604, 52.407, 52.407, 52.407, 143935.492663143, 59.0209034795782, -123.214697679015, 53.4609669148524, 246.816441202898, -50038.3682047582, 0.000773372128521878, ]
  - [29800, -49448.8565220383, 612.435607819331, -48836.420914219, 406.242652152224, 52.407, 52.407, 52.407, 143935.492663143, -597.926705707539, -726.918452952243, -648.958026763034, -417.903637407339, -50048.6767474229, 0.00081114364162266, ]
  - [29900, -49443.3828313351, 605.814461941504, -48837.5683693936, 401.85069350816, 52.407, 52.407, 52.407, 143935.492663143, -118.25413424381, -9.59956077663814, -209.103721166717, -136.059120788077, -50061.7223107489, 0.000850314629332433, ]
  - [30000, -49442.9573876339, 597.892365918737, -48845.0650217152, 396.595784652758, 52.407, 52.407, 52.407, 143935.492663143, 17.6587527065833, 144.630296685403, -291.784059735706, 200.13002117005, -50049.8285785689, 0.000890920000000001, ]
  - [30100, -49442.1487579106, 600.461806530109, -48841.6869513805, 398.30015382265, 52.407, 52.407, 52.407, 143935.492663143, 91.9427040996572, -46.9450669762736, 135.870414100217, 186.90276517503, -50054.0972966893, 0.000932995068233718, ]
  - [30200, -49448.0837044862, 594.154360434958, -48853.9293440512, 394.116279473598, 52.407, 52.407, 52.407, 143935.492663143, -731.058916713261, -585.091831585691, -654.453161584184, -953.631756969905, -50051.1989109507, 0.000976575551423828, ]
  - [30300, -49446.5090503588, 607.948933290014, -48838.5601170688, 403.266537542195, 52.407, 52.407, 52.407, 143935.492663143, -324.413948275102, -393.968271944789, -300.321829844642, -278.951743035871, -50060.5351749097, 0.00102169756617526, ]
  - [30400, -49444.4351655368, 592.734050906321, -48851.7011146305, 393.174155432435, 52.407, 52.407, 52.407, 143935.492663143, -184.534529252334, -364.661698552342, -57.096140284195, -131.845748920464, -50045.4758433741, 0.00106839762465251, ]
  - [30500, -49442.711185311, 601.148727468716, -48841.5624578423, 398.755804311216, 52.407, 52.407, 52.407, 143935.492663143, 125.607390130966, 308.772561856637, 23.2861139340709, 44.7634946021907, -50040.5945177114, 0.00111671263083812, ]
  - [30600, -49447.5427815389, 598.220799391015, -48849.3219821479, 396.813642143619, 52.407, 52.407, 52.407, 143935.492663143, -730.134571729592, -645.765229140276, -690.897645134969, -853.740840913532, -50050.9201208597, 0.00116667987670637, ]
  - [30700, -49446.447742587, 601.117301472353, -48845.3304411146, 398.734958723622, 52.407, 52.407, 52.407, 143935.492663143, -315.391445460666, -250.308977566274, -245.899734913559, -449.965623902165, -50048.631046161, 0.00121833703831365, ]
  - [30800, -49444.3881286992, 602.754799436628, -48841.6333292625, 399.821148859217, 52.407, 52.407, 52.407, 143935.492663143, 44.6455825445403, 17.7828038385866, -150.671975393706, 266.825919188741, -50050.3472718255, 0.00127172217180712, ]
  - [30900, -49444.7235439183, 599.662855103031, -48845.0606888152, 397.770190929355, 52.407, 52.407, 52.407, 143935.492663143, -267.375322394254, -101.373118753957, -210.470425761806, -490.282422666999, -50050.3102752381, 0.00132687370935312, ]
  - [31000, -49439.0754305141, 606.808091514282, -48832.2673389998, 402.509790901826, 52.407, 52.407, 52.407, 143935.492663143, 321.857891531461, 144.937492605726, 391.925471083822, 428.710710904836, -50058.432133161, 0.00138383045498687, ]
  - [31100, -49440.21151038, 602.868810989395, -48837.3426993906, 399.896775349546, 52.407, 52.407, 52.407, 143935.492663143, 491.659967667852, 447.767949793227, 679.665379231037, 347.54657397929, -50058.968180248, 0.00144263158038501, ]
  - [31200, -49437.5878489148, 603.491504474277, -48834.0963444406, 400.309822287945, 52.407, 52.407, 52.407, 143935.492663143, 785.951343400651, 1021.56830414275, 501.451083522877, 834.834642536322, -50052.019110879, 0.00150331662056234, ]
  - [31300, -49445.4433947689, 615.406224261893, -48830.037170507, 408.213130495981, 52.407, 52.407, 52.407, 143935.492663143, -64.3388440269449, 272.902789807878, -333.309626896419, -132.609694992295, -50045.311774813, 0.00156592546949443, ]
  - [31400, -49445.2461945606, 605.190099738361, -48840.0560948222, 401.436539670483, 52.407, 52.407, 52.407, 143935.492663143, -491.313528651269, -379.658355496839, -880.021097002308, -214.261133454662, -50036.1736919007, 0.00163049837566735, ]
  - [31500, -49439.8911537496, 603.676026941801, -48836.2151268078, 400.432220292946, 52.407, 52.407, 52.407, 143935.492663143, 349.051108109695, 480.870770456376, 344.518539695803, 221.764014176903, -50035.2689665656, 0.00169707593755625, ]
  - [31600, -49442.4914324397, 599.599456842783, -48842.8919755969, 397.728137402329, 52.407, 52.407, 52.407, 143935.492663143, 71.6079020324859, 137.464328172828, 67.2520078653394, 10.1073700592897, -50034.1234016692, 0.00176569909903396, ]
  - [31700, -49445.5219775052, 594.55716318115, -48850.9648143241, 394.383467817675, 52.407, 52.407, 52.407, 143935.492663143, -653.249954660148, -810.791390261791, -622.059537216426, -526.898936502227, -50030.0326470237, 0.0018364091447113, ]
  - [31800, -49440.2511229496, 599.526757520498, -48840.7243654291, 397.679914266512, 52.407, 52.407, 52.407, 143935.492663143, 358.563581964451, 45.1669952325063, 607.841813030809, 422.681937630038, -50017.617751328, 0.00190924769521034, ]
  - [31900, -49451.2546086706, 599.492480151103, -48851.7621285195, 397.657177297475, 52.407, 52.407, 52.407, 143935.492663143, -1392.23201499886, -1181.24921475707, -1369.4552962814, -1625.9915339581, -50032.250254738, 0.00198425670237219, ]
  - [32000, -49444.7118815067, 594.283313385224, -48850.4285681214, 394.20181693721, 52.407, 52.407, 52.407, 143935.492663143, -349.78189834181, -442.048507671472, -163.467464155839, -443.829723198118, -50034.0314051233, 0.00206147844440064, ]
  - [32100, -49442.8994529595, 594.111085074846, -48848.7883678846, 394.087573929961, 52.407, 52.407, 52.407, 143935.492663143, -306.52179413259, -145.925414852845, -192.025611789313, -581.614355755613, -50041.3251367148, 0.00214095552094305, ]
  - [32200, -49445.7282373884, 596.016243898252, -48849.7119934901, 395.351309681622, 52.407, 52.407, 52.407, 143935.492663143, -505.302238941388, -562.201144512563, -508.000490754666, -445.705081556935, -50048.3285710977, 0.00222273084810996, ]
[...]
  - [232500, -49444.6344184222, 603.400045884112, -48841.234372538, 400.24915569744, 52.407, 52.407, 52.407, 143935.492663143, -223.784724378985, -269.204952664016, -209.83896254095, -192.310257931991, -50047.4644487177, 0.000231150959815978, ]
  - [232600, -49429.451717923, 599.672025064367, -48829.7796928587, 397.776273576029, 52.407, 52.407, 52.407, 143935.492663143, 1828.68022843401, 1530.9305598843, 1839.48400782112, 2115.6261175966, -50048.337016504, 0.000216911211583102, ]
  - [232700, -49447.7171198121, 609.224342151139, -48838.492777661, 404.112545631383, 52.407, 52.407, 52.407, 143935.492663143, -663.90485224133, -463.721684846457, -758.908315542289, -769.084556335244, -50048.5841572296, 0.000203362326959055, ]
  - [232800, -49440.3338818319, 598.831827315874, -48841.5020545161, 397.218951047224, 52.407, 52.407, 52.407, 143935.492663143, 115.083034764552, 118.463683355101, 137.247209070475, 89.5382118680778, -50047.5669441841, 0.000190480389068545, ]
  - [232900, -49441.3263440896, 602.837159002503, -48838.4891850871, 399.875779857226, 52.407, 52.407, 52.407, 143935.492663143, 5.86485811623043, -17.9829483332902, -105.709949832144, 141.287472514124, -50036.2056040274, 0.000178241940897418, ]
  - [233000, -49441.8039071892, 610.324392985309, -48831.4795142039, 404.842234700193, 52.407, 52.407, 52.407, 143935.492663143, 199.63312882478, 355.866098161291, 106.583749762033, 136.449538551016, -50036.1337703045, 0.000166623985720989, ]
  - [233100, -49439.2808323008, 599.489974819805, -48839.7908574809, 397.655515453491, 52.407, 52.407, 52.407, 143935.492663143, 176.360757197017, 172.427677741386, 163.355256933167, 193.299336916502, -50035.8667733854, 0.000155603987394581, ]
  - [233200, -49437.6741603684, 600.181509143242, -48837.4926512251, 398.11422610653, 52.407, 52.407, 52.407, 143935.492663143, 104.442402834874, 294.168921335026, -98.3125975450517, 117.470884714647, -50044.4254442949, 0.000145159870504403, ]
  - [233300, -49442.5540036143, 601.389890866687, -48841.1641127476, 398.915773550664, 52.407, 52.407, 52.407, 143935.492663143, -120.745237722635, -103.704865158947, -117.549283878993, -140.981564129964, -50024.6929800563, 0.000135270020376871, ]
  - [233400, -49445.0383562444, 610.544812378823, -48834.4935438656, 404.988443963441, 52.407, 52.407, 52.407, 143935.492663143, -53.9179139200821, -50.5408091828824, -108.652594006675, -2.56033857068901, -50030.9921652475, 0.000125913282944476, ]
  - [233500, -49429.866353667, 599.083269018767, -48830.7830846482, 397.385738123189, 52.407, 52.407, 52.407, 143935.492663143, 1347.00792044472, 1223.0277651159, 1383.80190022973, 1434.19409598854, -50040.1286605624, 0.000117068964466275, ]
  - [233600, -49445.1881936184, 600.895508832892, -48844.2926847855, 398.58783855469, 52.407, 52.407, 52.407, 143935.492663143, -329.195915292186, -136.446122593448, -310.869528399479, -540.272094883633, -50034.1670436767, 0.000108716831101108, ]
  - [233700, -49434.6559241803, 600.029388391998, -48834.6265357883, 398.01332090663, 52.407, 52.407, 52.407, 143935.492663143, 1032.97491208111, 1234.39121728266, 734.523977204696, 1130.00954175597, -50040.6293044588, 0.000100837108331576, ]
  - [233800, -49441.9384743687, 601.517307777398, -48840.4211665913, 399.000292123842, 52.407, 52.407, 52.407, 143935.492663143, -126.702835727903, 121.585620180406, -344.297153834051, -157.396973530065, -50048.7420266963, 9.34104802368709e-05, ]
  - [233900, -49440.2478868115, 604.55311748013, -48835.6947693313, 401.014014659439, 52.407, 52.407, 52.407, 143935.492663143, 559.869605554429, 539.346390195708, 934.520854982534, 205.741571485046, -50045.8175218732, 8.64180886124633e-05, ]
  - [234000, -49439.9135959528, 605.478686943925, -48834.4349090089, 401.627966214382, 52.407, 52.407, 52.407, 143935.492663143, -33.8830215551848, 247.081310908516, 12.5308247722757, -361.261200346344, -50055.2321098632, 7.98415319347196e-05, ]
  - [234100, -49433.6705548467, 598.393106854423, -48835.2774479922, 396.927937654897, 52.407, 52.407, 52.407, 143935.492663143, 661.416199619482, 642.50884027109, 715.748350644127, 625.99140794323, -50063.535996419, 7.36628641684439e-05, ]
  - [234200, -49436.9530469105, 601.096465354046, -48835.8565815564, 398.721137646183, 52.407, 52.407, 52.407, 143935.492663143, 554.012423912369, 562.647734217453, 652.95179803667, 446.437739482983, -50069.268419212, 6.78645934153684e-05, ]
  - [234300, -49439.1390080586, 607.635169173907, -48831.5038388847, 403.058410573335, 52.407, 52.407, 52.407, 143935.492663143, 284.269607959422, 329.855907613934, 267.15086689539, 255.802049368941, -50060.9306346419, 6.24296804015905e-05, ]
  - [234400, -49438.5444746636, 609.046327447432, -48829.4981472162, 403.994464376092, 52.407, 52.407, 52.407, 143935.492663143, 273.084175136258, 217.594760016217, 266.854768629937, 334.802996762621, -50073.0970993281, 5.73415368019447e-05, ]
  - [234500, -49443.8318298145, 598.970022329746, -48844.8618074847, 397.310618984608, 52.407, 52.407, 52.407, 143935.492663143, -108.298561151917, -565.187022349975, 118.757038934563, 121.534299959666, -50061.4403664288, 5.25840233992875e-05, ]
  - [234600, -49441.5622794618, 606.665572926522, -48834.8967065353, 402.415255038246, 52.407, 52.407, 52.407, 143935.492663143, 191.285382901584, 293.551563897673, 324.67551499701, -44.3709301899319, -50050.1783953525, 4.81414480766631e-05, ]
  - [234700, -49441.6792337885, 605.353624716048, -48836.3256090724, 401.545009556591, 52.407, 52.407, 52.407, 143935.492663143, -7.0890525067225, 83.8420286883465, -147.456035127683, 42.3468489191695, -50050.2166061552, 4.39985636403036e-05, ]
  - [234800, -49445.5382879533, 603.537819706666, -48842.0004682467, 400.340544248917, 52.407, 52.407, 52.407, 143935.492663143, -155.912215622226, -182.429626820961, -307.442847111198, 22.1358270654824, -50033.2191235235, 4.01405654714093e-05, ]
  - [234900, -49451.2464340471, 607.598272754817, -48843.6481612923, 403.03393632828, 52.407, 52.407, 52.407, 143935.492663143, -954.09151396553, -1131.32592827145, -879.624411738376, -851.32420188676, -50049.683889457, 3.65530890046418e-05, ]
  - [235000, -49433.9717323966, 598.76120622148, -48835.2105261751, 397.17210644786, 52.407, 52.407, 52.407, 143935.492663143, 985.122296509052, 1202.12372432817, 1151.52293639534, 601.720228803645, -50052.8063457074, 3.32222070312498e-05, ]
  - [235100, -49440.1042042618, 594.383783233867, -48845.720421028, 394.268460903127, 52.407, 52.407, 52.407, 143935.492663143, 539.404841890719, 437.429378375832, 756.097408037552, 424.687739258771, -50056.7682186782, 3.01344268247407e-05, ]
  - [235200, -49441.0734502224, 597.011996176297, -48844.0614540461, 396.01181511461, 52.407, 52.407, 52.407, 143935.492663143, 139.323900475606, 389.250255085864, -15.7001596084472, 44.4216059494008, -50060.9804297932, 2.72766870869938e-05, ]
  - [235300, -49444.7735147441, 605.742366039006, -48839.0311487051, 401.802870634594, 52.407, 52.407, 52.407, 143935.492663143, -159.7768725467, -95.9436882496068, -255.797451548324, -127.589477842168, -50051.9158895419, 2.46363547127045e-05, ]
  - [235400, -49450.0758014675, 597.414802386321, -48852.6609990812, 396.279005756327, 52.407, 52.407, 52.407, 143935.492663143, -912.740053347596, -1100.19401875231, -907.929431594206, -730.096709696275, -50044.615357269, 2.22012213700348e-05, ]
  - [235500, -49442.0184587741, 598.254029490455, -48843.7644292836, 396.83568443436, 52.407, 52.407, 52.407, 143935.492663143, 86.0584025722726, 183.865938332332, 121.050490627859, -46.7412212433721, -50043.724263515, 1.99594998953343e-05, ]
  - [235600, -49445.5883284494, 600.405481223378, -48845.182847226, 398.262791948687, 52.407, 52.407, 52.407, 143935.492663143, -518.579728251251, -554.488872258024, -503.380265064261, -497.870047431468, -50048.1042074979, 1.78998204997852e-05, ]
  - [235700, -49439.1924547382, 606.20274315577, -48832.9897115824, 402.108249385464, 52.407, 52.407, 52.407, 143935.492663143, 333.28786038335, 429.176577141657, -35.6768531236395, 606.363857132034, -50049.3175092631, 1.6011226785813e-05, ]
  - [235800, -49441.9438890196, 608.531065819129, -48833.4128232005, 403.652679463912, 52.407, 52.407, 52.407, 143935.492663143, 173.580536739325, 386.82797927244, 115.999985148808, 17.9136457967243, -50056.6884876464, 1.42831715710918e-05, ]
  - [235900, -49440.741251386, 603.445760808105, -48837.2954905779, 400.279479460018, 52.407, 52.407, 52.407, 143935.492663143, 436.676818454458, 244.474780621904, 491.333026712684, 574.222648028789, -50044.6648030756, 1.27055125179639e-05, ]
  - [236000, -49446.4004355322, 603.019774199378, -48843.3806613329, 399.996912725653, 52.407, 52.407, 52.407, 143935.492663143, -326.582898044911, -492.797273721366, -74.565762547704, -412.385657865661, -50031.6597671134, 1.12685075660799e-05, ]
  - [236100, -49446.5428919493, 607.734332788749, -48838.8085591606, 403.12418808427, 52.407, 52.407, 52.407, 143935.492663143, -670.559280204901, -621.649932159762, -843.946086898586, -546.081821556356, -50042.4889209239, 9.96281016605479e-06, ]
  - [236200, -49444.4322811378, 601.565623857582, -48842.8666572802, 399.032341293265, 52.407, 52.407, 52.407, 143935.492663143, -207.646282616507, -279.412314759244, -303.23132297224, -40.2952101180361, -50058.0646409591, 8.77946431192305e-06, ]
  - [236300, -49438.9918494013, 598.537470032128, -48840.4543793692, 397.023697077496, 52.407, 52.407, 52.407, 143935.492663143, 273.468805442066, -28.7460572427044, 406.202775684689, 442.949697884211, -50060.0894570602, 7.70989937016554e-06, ]
  - [236400, -49440.0057260644, 594.478691009003, -48845.5270350553, 394.331415417511, 52.407, 52.407, 52.407, 143935.492663143, 145.761969781018, -2.14597796928881, 354.339017288457, 85.0928700238882, -50048.2450533802, 6.74592470306788e-06, ]
  - [236500, -49443.8607850522, 595.082494669284, -48848.7782903829, 394.731932299939, 52.407, 52.407, 52.407, 143935.492663143, -255.91293745391, -121.545646334016, -568.201255808465, -77.9919102192472, -50049.3531236131, 5.87972408415909e-06, ]
  - [236600, -49443.5078162652, 593.360099954214, -48850.147716311, 393.589428193108, 52.407, 52.407, 52.407, 143935.492663143, -180.859188912176, 21.1486063470923, -330.989028311399, -232.737144772219, -50056.3098820651, 5.10384990346715e-06, ]
  - [236700, -49442.7176584499, 598.616655311074, -48844.1010031388, 397.076222497834, 52.407, 52.407, 52.407, 143935.492663143, 12.5425727667223, 27.7195122705854, -11.5923661507584, 21.5005721803394, -50059.0281423252, 4.41121716031669e-06, ]
  - [236800, -49446.5485933991, 602.136993582754, -48844.4115998163, 399.4113439991, 52.407, 52.407, 52.407, 143935.492663143, -619.3415567754, -488.445504171136, -711.909274401039, -657.669891754026, -50046.546107422, 3.79509724138197e-06, ]
  - [236900, -49434.9609049473, 599.34337640422, -48835.6175285431, 397.558273346095, 52.407, 52.407, 52.407, 143935.492663143, 871.991434918932, 925.91273116486, 823.773227524564, 866.28834606737, -50032.8106726114, 3.24911148169665e-06, ]
  - [237000, -49437.4782679944, 599.849120962782, -48837.6291470316, 397.893745366596, 52.407, 52.407, 52.407, 143935.492663143, 601.139965760562, 696.635110714635, 631.521410537145, 475.263376029906, -50040.7827715825, 2.76722450630996e-06, ]
  - [237100, -49438.211463507, 600.092378399992, -48838.119085107, 398.055103630528, 52.407, 52.407, 52.407, 143935.492663143, 253.231731547297, 280.924675391153, 9.32367196419052, 469.446847286549, -50036.6777219623, 2.34373735026696e-06, ]
  - [237200, -49444.1683238671, 604.381329639155, -48839.786994228, 400.900063825695, 52.407, 52.407, 52.407, 143935.492663143, -248.551568218636, -368.924327749049, -314.199363296552, -62.5310136103068, -50036.1355266988, 1.97328035457889e-06, ]
  - [237300, -49447.5168039288, 602.795233567955, -48844.7215703608, 399.847969750325, 52.407, 52.407, 52.407, 143935.492663143, -796.714501783457, -660.250990609291, -718.979921267631, -1010.91259347345, -50031.6899406369, 1.65080583583743e-06, ]
  - [237400, -49444.0726180585, 593.649018423784, -48850.4235996348, 393.781074472056, 52.407, 52.407, 52.407, 143935.492663143, -217.783238331096, 9.48323562415355, -292.420583101905, -370.412367515537, -50028.48546587, 1.37158052711493e-06, ]
  - [237500, -49442.0153722403, 599.493845118579, -48842.5215271217, 397.658082711858, 52.407, 52.407, 52.407, 143935.492663143, -345.626593272309, 45.7023396357872, -526.42885925325, -556.153260199465, -50026.7929024127, 1.13117778778074e-06, ]
  - [237600, -49451.7593728957, 603.602637508054, -48848.1567353877, 400.383539390294, 52.407, 52.407, 52.407, 143935.492663143, -909.048881785891, -711.074350159686, -1035.498538928, -980.57375626999, -50029.2667920549, 9.25469579851505e-07, ]
  - [237700, -49436.6869763517, 596.125626113622, -48840.5613502381, 395.423865425774, 52.407, 52.407, 52.407, 143935.492663143, 852.37061046077, 1076.05405259476, 794.710949973323, 686.346828814225, -50034.3942187612, 7.50618208481688e-07, ]
  - [237800, -49441.5176110234, 604.440037630629, -48837.0775733927, 400.939006189357, 52.407, 52.407, 52.407, 143935.492663143, -40.7198342124458, -92.4291504918678, 132.639256240099, -162.369608385569, -50049.1887857495, 6.03067824188189e-07, ]
  - [237900, -49442.0151699994, 600.618933771788, -48841.3962362276, 398.404379943029, 52.407, 52.407, 52.407, 143935.492663143, 119.081856092729, 54.7569819594792, 134.131810592084, 168.356775726627, -50043.5171901096, 4.79535684391034e-07, ]
  - [238000, -49438.6081313662, 602.650868318226, -48835.9572630479, 399.752208953305, 52.407, 52.407, 52.407, 143935.492663143, 678.991983789187, 743.380528016111, 708.73329456662, 584.862128784826, -50049.4231077298, 3.77003171839991e-07, ]
  - [238100, -49442.2613281572, 601.217325656533, -48841.0440025006, 398.80130707003, 52.407, 52.407, 52.407, 143935.492663143, 13.6164274472638, -9.44327395063553, 169.049986100857, -118.757429808431, -50042.1850003829, 2.92706567484834e-07, ]
  - [238200, -49444.1866181097, 600.578637736357, -48843.6079803733, 398.377650654111, 52.407, 52.407, 52.407, 143935.492663143, -274.553493366559, -369.553499443779, -628.246638839311, 174.139658183414, -50050.0431942951, 2.24127575334843e-07, ]
  - [238300, -49445.2989151103, 598.785206164511, -48846.5137089458, 397.188026163147, 52.407, 52.407, 52.407, 143935.492663143, -197.488214429147, -353.411986701152, 120.780899507888, -359.833556094177, -50060.7363041572, 1.68983596840973e-07, ]
  - [238400, -49451.0019422684, 596.511193176513, -48854.4907490919, 395.679620943924, 52.407, 52.407, 52.407, 143935.492663143, -1145.68221820883, -820.6837577261, -1207.59997938076, -1408.76291751964, -50049.9353628503, 1.25217752321901e-07, ]
  - [238500, -49441.3290725362, 594.69675322466, -48846.6323193115, 394.476061110366, 52.407, 52.407, 52.407, 143935.492663143, 155.603648126137, -9.25591982869994, -93.5278153578759, 569.594679564988, -50043.0841272832, 9.09886469429854e-08, ]
  - [238600, -49449.7501958668, 601.25563489388, -48848.494560973, 398.826718469993, 52.407, 52.407, 52.407, 143935.492663143, -1170.38811324257, -1172.99762617276, -1507.26271930816, -830.903994246804, -50049.8600218879, 6.46598787448784e-08, ]
  - [238700, -49450.1222279306, 601.477411624891, -48848.6448163057, 398.973828086484, 52.407, 52.407, 52.407, 143935.492663143, -818.859885339402, -846.279069233231, -821.223390826098, -789.077195958877, -50030.0405778682, 4.47892862063161e-08, ]
  - [238800, -49440.9535667159, 598.499575288551, -48842.4539914274, 396.998560620803, 52.407, 52.407, 52.407, 143935.492663143, -155.705196667776, -245.916603063228, -120.310102521528, -100.888884418572, -50030.0656334766, 3.01179328132691e-08, ]
  - [238900, -49436.668263464, 603.432754590835, -48833.2355088732, 400.270852136376, 52.407, 52.407, 52.407, 143935.492663143, 681.393969704112, 764.851288897731, 493.606984401123, 785.723635813482, -50023.9744270438, 1.95588260943479e-08, ]
  - [239000, -49439.7717391363, 597.852586907569, -48841.9191522288, 396.569398317948, 52.407, 52.407, 52.407, 143935.492663143, 608.37328420224, 455.07649990893, 665.711748581042, 704.331604116745, -50024.3812288223, 1.21853685699994e-08, ]
  - [239100, -49441.8919361486, 603.845522989948, -48838.0464131587, 400.544650927693, 52.407, 52.407, 52.407, 143935.492663143, 184.758068181843, 466.775961326535, 48.1350710316698, 39.363172187326, -50037.6677666272, 7.21953805066191e-09, ]
  - [239200, -49445.309478529, 601.862510835433, -48843.4469676936, 399.229273267389, 52.407, 52.407, 52.407, 143935.492663143, -263.841946577361, -495.15281709413, -230.336601293107, -66.0364213448436, -50045.1525912222, 4.01979470665194e-09, ]
  - [239300, -49449.2277152135, 606.153812810275, -48843.0739024032, 402.075792759705, 52.407, 52.407, 52.407, 143935.492663143, -1067.78064800502, -1208.86499182083, -921.039731554549, -1073.43722063968, -50041.1202166842, 2.06871232013228e-09, ]
  - [239400, -49435.8836276322, 607.304124410759, -48828.5795032214, 402.838820953063, 52.407, 52.407, 52.407, 143935.492663143, 864.527105616744, 932.883775716679, 1058.68715352717, 602.010387606383, -50046.2478148585, 9.60331117066315e-10, ]
  - [239500, -49433.1714777562, 608.002001490593, -48825.1694762656, 403.301738902588, 52.407, 52.407, 52.407, 143935.492663143, 1141.92506421605, 1048.1310128811, 1481.98829019669, 895.655889570376, -50048.182532388, 3.87229564589803e-10, ]
  - [239600, -49439.28845079, 602.361461696976, -48836.9269890931, 399.560238872098, 52.407, 52.407, 52.407, 143935.492663143, 337.7302913496, 330.34994825488, 329.182171968723, 353.658753825202, -50048.7715544141, 1.27312506734493e-10, ]
  - [239700, -49430.6509135571, 608.028952375394, -48822.6219611817, 403.319616045555, 52.407, 52.407, 52.407, 143935.492663143, 1469.32123730727, 1418.07468789188, 1203.58205340752, 1786.30697062241, -50037.4184009551, 3.03129989146573e-11, ]
  - [239800, -49434.8056023679, 595.151803626371, -48839.6537987415, 394.777906528389, 52.407, 52.407, 52.407, 143935.492663143, 861.364950985818, 683.970871332138, 966.815227072106, 933.308754553211, -50032.7844303399, 4.00518903939475e-12, ]
  - [239900, -49445.014784099, 606.372836411926, -48838.6419476871, 402.221076162045, 52.407, 52.407, 52.407, 143935.492663143, -216.34315563503, -670.060705460216, -19.0228403227008, 40.05407887783, -50043.2711409004, 1.25580539685001e-13, ]
  - [240000, -49446.9693530505, 603.98631272669, -48842.9830403238, 400.638040004552, 52.407, 52.407, 52.407, 143935.492663143, -520.334814891644, -608.340950186841, -674.67766672434, -277.985827763752, -50048.3246458109, 0, ]
...
Loop time of 139.81 on 64 procs for 100000 steps with 11664 atoms

Performance: 61.798 ns/day, 0.388 hours/ns, 715.257 timesteps/s, 8.343 Matom-step/s
64.9% CPU use with 64 MPI tasks x 1 OpenMP threads

MPI task timing breakdown:
Section |  min time  |  avg time  |  max time  |%varavg| %total
---------------------------------------------------------------
Pair    | 61.554     | 63.845     | 66.797     |  12.8 | 45.67
Neigh   | 0          | 0          | 0          |   0.0 |  0.00
Comm    | 22.97      | 25.422     | 28.222     |  21.2 | 18.18
Output  | 0.43089    | 0.47415    | 0.48163    |   1.0 |  0.34
Modify  | 18.608     | 19.873     | 48.589     |  81.6 | 14.21
Other   |            | 30.2       |            |       | 21.60

Nlocal:         182.25 ave         195 max         170 min
Histogram: 3 3 7 8 12 7 13 4 4 3
Nghost:        1275.75 ave        1288 max        1263 min
Histogram: 3 1 7 10 10 6 14 6 4 3
Neighs:        7774.19 ave        8420 max        7093 min
Histogram: 2 2 5 10 12 11 11 7 1 3

Total # of neighbors = 497548
Ave neighs/atom = 42.656722
Neighbor list builds = 0
Dangerous builds = 0
#------------------------------------------------------------------------------#
Total wall time: 0:05:38
