LAMMPS (2 Aug 2023)
OMP_NUM_THREADS environment is not set. Defaulting to 1 thread. (src/comm.cpp:98)
  using 1 OpenMP thread(s) per MPI task
#--------------------------- Simulation variables -----------------------------#
# Initalizes the random number generator.
variable RND equal round(random(0,999,${RANDOM}))
variable RND equal round(random(0,999,1))

# Simulation control parameters.
variable t_eq equal 20000 # Equilibration time.
variable t equal 100000 # Switching time.

#---------------------------- Atomic setup ------------------------------------#
units            metal
# Create atoms.
lattice          bcc ${a}
lattice          bcc 2.9536666666666664
Lattice spacing in x,y,z = 2.9536667 2.9536667 2.9536667
region           sim_box block 0 18 0 18 0 18
create_box       1 sim_box
Created orthogonal box = (0 0 0) to (53.166 53.166 53.166)
  4 by 4 by 4 MPI processor grid
create_atoms     1 box
Created 11664 atoms
  using lattice units in orthogonal box = (0 0 0) to (53.166 53.166 53.166)
  create_atoms CPU = 0.001 seconds

# Define interatomic potential.
pair_style       eam
pair_coeff       * * ../Fe.eam
#----------------------------- Run simulation ---------------------------------#
# Initial temperature to accelerate equilibration.
velocity all create ${T} ${RND} mom yes rot yes dist gaussian
velocity all create 1100 ${RND} mom yes rot yes dist gaussian
velocity all create 1100 80 mom yes rot yes dist gaussian

# Integrator, Frenkel-Ladd modifier, and thermostat.
fix fe all nve
fix fti all ti/spring ${k} ${t} ${t_eq} function 2
fix fti all ti/spring 3.1526409587233877 ${t} ${t_eq} function 2
fix fti all ti/spring 3.1526409587233877 100000 ${t_eq} function 2
fix fti all ti/spring 3.1526409587233877 100000 20000 function 2
fix ft all langevin ${T} ${T} 0.1 ${RND} zero yes
fix ft all langevin 1100 ${T} 0.1 ${RND} zero yes
fix ft all langevin 1100 1100 0.1 ${RND} zero yes
fix ft all langevin 1100 1100 0.1 178 zero yes
compute tcom all temp/com
fix_modify ft temp tcom

# Setup thermo output.
variable dE equal pe-f_fti
variable lambda equal f_fti[1]

thermo_style custom step pe ke etotal temp lx ly lz vol press pxx pyy pzz v_dE v_lambda
thermo 100
thermo_modify line yaml
thermo_modify flush yes

# Forward integration.
run ${t_eq}
run 20000

CITE-CITE-CITE-CITE-CITE-CITE-CITE-CITE-CITE-CITE-CITE-CITE-CITE

Your simulation uses code contributions which should be cited:

- ti/spring command: doi:10.1016/j.commatsci.2015.10.050

@article{freitas2016,
  author={Freitas, Rodrigo and Asta, Mark and de Koning, Maurice},
  title={Nonequilibrium Free-Energy Calculation of Solids Using {LAMMPS}},
  journal={Computational Materials Science},
  volume={112},
  pages={333--341},
  year={2016},
  publisher={Elsevier}
}

CITE-CITE-CITE-CITE-CITE-CITE-CITE-CITE-CITE-CITE-CITE-CITE-CITE

Neighbor list info ...
  update: every = 1 steps, delay = 0 steps, check = yes
  max neighbors/atom: 2000, page size: 100000
  master list distance cutoff = 6.409104
  ghost atom cutoff = 6.409104
  binsize = 3.204552, bins = 17 17 17
  1 neighbor lists, perpetual/occasional/extra = 1 0 0
  (1) pair eam, perpetual
      attributes: half, newton on
      pair build: half/bin/atomonly/newton
      stencil: half/bin/3d
      bin: standard
Per MPI rank memory allocation (min/avg/max) = 3.736 | 3.736 | 3.736 Mbytes
---
keywords: ['Step', 'PotEng', 'KinEng', 'TotEng', 'Temp', 'Lx', 'Ly', 'Lz', 'Volume', 'Press', 'Pxx', 'Pyy', 'Pzz', 'v_dE', 'v_lambda', ]
data:
  - [0, -49513.4165867072, 1658.3171782485, -47855.0994084587, 1100, 53.166, 53.166, 53.166, 150280.267978296, -126729.531463983, -126602.023761825, -126810.69707065, -126775.873559475, -49513.4165867072, 0, ]
  - [100, -48486.2593960396, 1389.21625714531, -47097.0431388943, 921.499157642357, 53.166, 53.166, 53.166, 150280.267978296, -18005.2588949331, -18867.8276463941, -17299.6978880331, -17848.251150372, -48486.2593960396, 0, ]
  - [200, -48385.9013813072, 1571.15730078976, -46814.7440805174, 1042.18484469546, 53.166, 53.166, 53.166, 150280.267978296, -7320.81118989297, -7046.41308217051, -7718.86356793881, -7197.1569195696, -48385.9013813072, 0, ]
  - [300, -48323.5167731642, 1616.40633898592, -46707.1104341782, 1072.1995744882, 53.166, 53.166, 53.166, 150280.267978296, -684.615316508834, -1662.3300013653, -672.871797246895, 281.355849085692, -48323.5167731642, 0, ]
  - [400, -48317.0019727242, 1640.34232073569, -46676.6596519885, 1088.07686278389, 53.166, 53.166, 53.166, 150280.267978296, -807.821927593737, -1034.76572337944, -725.754951562405, -662.945107839354, -48317.0019727242, 0, ]
  - [500, -48315.6181835479, 1640.20211961916, -46675.4160639287, 1087.98386415238, 53.166, 53.166, 53.166, 150280.267978296, -804.860677816939, -1080.96214922878, -571.104266779713, -762.515617442317, -48315.6181835479, 0, ]
  - [600, -48298.9612568392, 1664.47364322339, -46634.4876136158, 1104.08372509265, 53.166, 53.166, 53.166, 150280.267978296, 2032.57595218408, 1627.59543831425, 2476.55224259337, 1993.58017564461, -48298.9612568392, 0, ]
  - [700, -48296.9698031112, 1645.51152473081, -46651.4582783804, 1091.50571491737, 53.166, 53.166, 53.166, 150280.267978296, 1273.81742124457, 540.643036419176, 975.141603908353, 2305.66762340616, -48296.9698031112, 0, ]
  - [800, -48307.8280573333, 1653.02610661526, -46654.8019507181, 1096.49031025373, 53.166, 53.166, 53.166, 150280.267978296, 375.423404527807, 412.944162617898, 531.03833011719, 182.287720848332, -48307.8280573333, 0, ]
  - [900, -48313.3861894282, 1671.96389108321, -46641.4222983449, 1109.05217910969, 53.166, 53.166, 53.166, 150280.267978296, 67.8777578257666, -259.660454816137, 261.304908461553, 201.988819831889, -48313.3861894282, 0, ]
  - [1000, -48311.3691326629, 1673.23878783278, -46638.1303448301, 1109.89784750348, 53.166, 53.166, 53.166, 150280.267978296, -463.746926763117, -488.572649952683, -1119.16869464904, 216.500564312376, -48311.3691326629, 0, ]
  - [1100, -48306.8195356835, 1674.72169479804, -46632.0978408855, 1110.88149386691, 53.166, 53.166, 53.166, 150280.267978296, 257.305837395354, 293.06427576726, 359.961050263538, 118.892186155269, -48306.8195356835, 0, ]
  - [1200, -48301.0552396453, 1628.54058979199, -46672.5146498533, 1080.24850267984, 53.166, 53.166, 53.166, 150280.267978296, 825.134171101184, 941.683544096425, 769.013155441133, 764.70581376599, -48301.0552396453, 0, ]
  - [1300, -48315.6913174257, 1666.23662588162, -46649.4546915441, 1105.25315211752, 53.166, 53.166, 53.166, 150280.267978296, -343.947726972565, -404.494906873266, -250.286682643305, -377.061591401119, -48315.6913174257, 0, ]
  - [1400, -48327.3494414835, 1649.01139214087, -46678.3380493426, 1093.82725762438, 53.166, 53.166, 53.166, 150280.267978296, -2081.61307131979, -2415.92236791029, -1213.00558489221, -2615.91126115687, -48327.3494414835, 0, ]
  - [1500, -48310.1600736719, 1633.2397713459, -46676.920302326, 1083.36557809647, 53.166, 53.166, 53.166, 150280.267978296, -298.996691493954, -252.971213627643, -928.959065488397, 284.940204634175, -48310.1600736719, 0, ]
  - [1600, -48339.2614667148, 1656.47925513904, -46682.7822115757, 1098.78086324684, 53.166, 53.166, 53.166, 150280.267978296, -2325.86944771213, -2161.7972388942, -3292.33361725203, -1523.47748699016, -48339.2614667148, 0, ]
  - [1700, -48326.1993998318, 1654.65288068703, -46671.5465191447, 1097.56938698429, 53.166, 53.166, 53.166, 150280.267978296, -1487.54165457146, -1909.41370913952, -1315.89445490923, -1237.31679966564, -48326.1993998318, 0, ]
  - [1800, -48324.5610587316, 1651.25306177438, -46673.3079969572, 1095.31420875123, 53.166, 53.166, 53.166, 150280.267978296, -1011.55773434261, -1756.97334010737, -721.159794099737, -556.540068820736, -48324.5610587316, 0, ]
  - [1900, -48327.1901276338, 1639.70699543682, -46687.483132197, 1087.65543687217, 53.166, 53.166, 53.166, 150280.267978296, -2274.7415473201, -1370.60609451795, -2696.39339250559, -2757.22515493674, -48327.1901276338, 0, ]
  - [2000, -48328.9201319683, 1656.00064407116, -46672.9194878971, 1098.46338949599, 53.166, 53.166, 53.166, 150280.267978296, -1818.14283113284, -1405.7657197562, -1930.26887348083, -2118.39390016151, -48328.9201319683, 0, ]
  - [2100, -48320.237869773, 1665.89890413102, -46654.338965642, 1105.0291334976, 53.166, 53.166, 53.166, 150280.267978296, -413.97242547735, -88.3119174835609, -291.322357476171, -862.283001472314, -48320.237869773, 0, ]
  - [2200, -48323.3748481212, 1667.88769728371, -46655.4871508375, 1106.34834582721, 53.166, 53.166, 53.166, 150280.267978296, -1017.80031590768, -862.464722434011, -484.267697508613, -1706.66852778039, -48323.3748481212, 0, ]
  - [2300, -48304.3402745171, 1654.84744187782, -46649.4928326392, 1097.69844390578, 53.166, 53.166, 53.166, 150280.267978296, 766.303794975739, 1692.23845844391, 317.078621040951, 289.594305442357, -48304.3402745171, 0, ]
  - [2400, -48328.1323363246, 1656.52871429013, -46671.6036220344, 1098.81367064154, 53.166, 53.166, 53.166, 150280.267978296, -1822.74549539292, -1232.06026899317, -1884.08759511251, -2352.08862207309, -48328.1323363246, 0, ]
  - [2500, -48327.3109813236, 1695.90421997904, -46631.4067613446, 1124.93235096754, 53.166, 53.166, 53.166, 150280.267978296, -1281.72215004527, -1465.19060947571, -1639.81328754824, -740.162553111867, -48327.3109813236, 0, ]
  - [2600, -48314.0469807537, 1669.72770305431, -46644.3192776994, 1107.5688640575, 53.166, 53.166, 53.166, 150280.267978296, 13.3659404418968, -46.7137924136571, -426.569062039673, 513.380675779018, -48314.0469807537, 0, ]
  - [2700, -48322.8970309635, 1650.6852957398, -46672.2117352237, 1094.93759645641, 53.166, 53.166, 53.166, 150280.267978296, -949.962957854979, -792.123402995737, -627.702537770907, -1430.0629327983, -48322.8970309635, 0, ]
  - [2800, -48326.9864099914, 1654.06835734382, -46672.9180526476, 1097.18165918049, 53.166, 53.166, 53.166, 150280.267978296, -1318.5916013576, -1103.0315550394, -1622.90998132941, -1229.83326770399, -48326.9864099914, 0, ]
  - [2900, -48312.3931920641, 1638.77113311887, -46673.6220589452, 1087.03465782987, 53.166, 53.166, 53.166, 150280.267978296, -574.39173736386, -1074.24193851032, -855.085856908211, 206.152583326949, -48312.3931920641, 0, ]
  - [3000, -48302.5552274468, 1647.85184965734, -46654.7033777895, 1093.05810637358, 53.166, 53.166, 53.166, 150280.267978296, 1021.0455538332, 348.022317956986, 1391.53902512437, 1323.57531841825, -48302.5552274468, 0, ]
  - [3100, -48304.9387926402, 1667.70419490102, -46637.2345977391, 1106.22662446799, 53.166, 53.166, 53.166, 150280.267978296, 417.41930221257, -512.285939605812, 317.748547882431, 1446.79529836108, -48304.9387926402, 0, ]
  - [3200, -48302.939448351, 1672.28185130067, -46630.6575970503, 1109.26308944928, 53.166, 53.166, 53.166, 150280.267978296, 314.397535208775, -337.247605850572, 954.042097451463, 326.398114025432, -48302.939448351, 0, ]
  - [3300, -48310.1914055103, 1660.62773981394, -46649.5636656964, 1101.5326487329, 53.166, 53.166, 53.166, 150280.267978296, -79.9695990232762, -581.326873492758, 75.8797623542907, 265.538314068641, -48310.1914055103, 0, ]
  - [3400, -48323.3189436663, 1665.08480220319, -46658.2341414631, 1104.48912092801, 53.166, 53.166, 53.166, 150280.267978296, -1201.31685040746, -1372.14110628569, -1445.00898652298, -786.800458413707, -48323.3189436663, 0, ]
  - [3500, -48304.620057263, 1656.50714916636, -46648.1129080966, 1098.79936599797, 53.166, 53.166, 53.166, 150280.267978296, -77.5382342989026, 638.54256634533, -497.364751021453, -373.79251822058, -48304.620057263, 0, ]
  - [3600, -48291.1610528211, 1673.42081246255, -46617.7402403585, 1110.01858863514, 53.166, 53.166, 53.166, 150280.267978296, 1404.36465268868, 1450.67829736779, 1581.95202087289, 1180.46363982535, -48291.1610528211, 0, ]
  - [3700, -48310.5947456372, 1666.00751896883, -46644.5872266683, 1105.10118022253, 53.166, 53.166, 53.166, 150280.267978296, -700.620209024312, -660.43195234051, -665.627018789876, -775.801655942544, -48310.5947456372, 0, ]
  - [3800, -48309.4957325475, 1664.70781216867, -46644.7879203788, 1104.23905475044, 53.166, 53.166, 53.166, 150280.267978296, 190.752571746793, 548.766084582281, -222.971299757889, 246.462930415988, -48309.4957325475, 0, ]
  - [3900, -48309.8672659694, 1654.33508297901, -46655.5321829904, 1097.35858444097, 53.166, 53.166, 53.166, 150280.267978296, 243.540548983641, 714.744732129638, -185.027733923457, 200.904648744738, -48309.8672659694, 0, ]
  - [4000, -48309.322949986, 1664.75492102203, -46644.5680289639, 1104.27030313849, 53.166, 53.166, 53.166, 150280.267978296, 404.081946969047, -224.054406931458, 1107.06842446909, 329.231823369507, -48309.322949986, 0, ]
  - [4100, -48313.9386004142, 1652.54666258613, -46661.3919378281, 1096.17228398049, 53.166, 53.166, 53.166, 150280.267978296, -236.43285841706, -286.864047141107, 327.337532598184, -749.772060708252, -48313.9386004142, 0, ]
  - [4200, -48306.0341681566, 1663.601530007, -46642.4326381496, 1103.5052322985, 53.166, 53.166, 53.166, 150280.267978296, 603.668263295745, 945.794933667651, 580.081428730498, 285.128427489083, -48306.0341681566, 0, ]
  - [4300, -48313.2179112809, 1637.07609003754, -46676.1418212434, 1085.91029669202, 53.166, 53.166, 53.166, 150280.267978296, -741.317813115309, -988.239420171404, -168.210108651675, -1067.50391052285, -48313.2179112809, 0, ]
  - [4400, -48318.8912120026, 1650.05461462656, -46668.836597376, 1094.51925114004, 53.166, 53.166, 53.166, 150280.267978296, -204.239573918457, -669.184418865516, 203.328685797364, -146.862988687221, -48318.8912120026, 0, ]
  - [4500, -48316.3016442421, 1641.58424893853, -46674.7173953036, 1088.90066238088, 53.166, 53.166, 53.166, 150280.267978296, -1001.52759991194, 62.213687048864, -1092.35191812869, -1974.44456865598, -48316.3016442421, 0, ]
  - [4600, -48332.3567019529, 1661.95806337414, -46670.3986385788, 1102.41508300748, 53.166, 53.166, 53.166, 150280.267978296, -2671.82734835856, -2716.08993928158, -2153.18200658072, -3146.21009921339, -48332.3567019529, 0, ]
  - [4700, -48312.9662972315, 1648.52006433454, -46664.446232897, 1093.50134856787, 53.166, 53.166, 53.166, 150280.267978296, -589.210581353143, -284.019390603304, -945.579472195491, -538.032881260637, -48312.9662972315, 0, ]
  - [4800, -48299.8328100666, 1663.34879820626, -46636.4840118604, 1103.3375894709, 53.166, 53.166, 53.166, 150280.267978296, 1153.15573080467, 1455.05883133624, 478.681927319523, 1525.72643375825, -48299.8328100666, 0, ]
  - [4900, -48297.9151901534, 1658.98021595558, -46638.9349741978, 1100.43980819071, 53.166, 53.166, 53.166, 150280.267978296, 1454.97334577096, 2263.93578073559, 1023.24783419696, 1077.73642238033, -48297.9151901534, 0, ]
  - [5000, -48323.1478140987, 1674.98520378139, -46648.1626103173, 1111.05628544808, 53.166, 53.166, 53.166, 150280.267978296, -1355.50812556205, -1002.31496283369, -2217.25425913094, -846.955154721515, -48323.1478140987, 0, ]
  - [5100, -48284.7589982552, 1660.39841110063, -46624.3605871546, 1101.38052971251, 53.166, 53.166, 53.166, 150280.267978296, 2440.63490727451, 2607.68728077409, 2542.74089412956, 2171.47654691989, -48284.7589982552, 0, ]
  - [5200, -48322.0622305945, 1650.08950513181, -46671.9727254627, 1094.54239481622, 53.166, 53.166, 53.166, 150280.267978296, -1187.06344451331, -1597.03494965668, -1271.85010356061, -692.305280322642, -48322.0622305945, 0, ]
  - [5300, -48323.3448730868, 1670.35912450123, -46652.9857485856, 1107.98770045426, 53.166, 53.166, 53.166, 150280.267978296, -1249.2345687812, -1561.69481211792, -1533.52609372956, -652.482800496118, -48323.3448730868, 0, ]
  - [5400, -48323.7218129863, 1664.36050094864, -46659.3613120377, 1104.00867521446, 53.166, 53.166, 53.166, 150280.267978296, -724.053550507259, -627.421756817633, -613.33284476451, -931.406049939625, -48323.7218129863, 0, ]
  - [5500, -48307.9057190989, 1644.2859265658, -46663.6197925331, 1090.6927474108, 53.166, 53.166, 53.166, 150280.267978296, -74.6306175422759, 270.308735883745, -39.139336615227, -455.061251895348, -48307.9057190989, 0, ]
  - [5600, -48324.6160258295, 1665.93561991381, -46658.6804059156, 1105.05348792244, 53.166, 53.166, 53.166, 150280.267978296, -1640.28833136709, -1325.44031772351, -1812.18413782004, -1783.24053855771, -48324.6160258295, 0, ]
  - [5700, -48324.9078746943, 1650.60182302562, -46674.3060516686, 1094.88222708147, 53.166, 53.166, 53.166, 150280.267978296, -528.807802400863, -846.499470682108, -791.260133717494, 51.336197197021, -48324.9078746943, 0, ]
  - [5800, -48329.1422776692, 1653.96846665703, -46675.1738110121, 1097.11539938598, 53.166, 53.166, 53.166, 150280.267978296, -1703.48789162731, -1796.11152950054, -1336.35039235133, -1978.00175303006, -48329.1422776692, 0, ]
  - [5900, -48320.6492106983, 1644.73936897705, -46675.9098417213, 1090.9935262117, 53.166, 53.166, 53.166, 150280.267978296, -1170.30011717019, -1205.1447530551, -826.333233291684, -1479.42236516378, -48320.6492106983, 0, ]
  - [6000, -48310.4908374349, 1665.18951489867, -46645.3013225363, 1104.55857927201, 53.166, 53.166, 53.166, 150280.267978296, -245.528114992478, 55.3195286966043, -88.6158843083639, -703.287989365683, -48310.4908374349, 0, ]
  - [6100, -48305.9634805267, 1653.1420750682, -46652.8214054585, 1096.56723480104, 53.166, 53.166, 53.166, 150280.267978296, -70.308212657852, 558.962859916328, -571.442225398819, -198.44527249106, -48305.9634805267, 0, ]
  - [6200, -48318.0831852796, 1626.66149894275, -46691.4216863369, 1079.00205841617, 53.166, 53.166, 53.166, 150280.267978296, -1487.6945884652, -1462.33535360806, -2174.96730106333, -825.781110724194, -48318.0831852796, 0, ]
  - [6300, -48331.8634528081, 1664.38521369238, -46667.4782391157, 1104.02506774688, 53.166, 53.166, 53.166, 150280.267978296, -2447.23772409371, -2982.80910762261, -2924.18661630292, -1434.7174483556, -48331.8634528081, 0, ]
  - [6400, -48306.1231917879, 1639.4693664091, -46666.6538253788, 1087.49781206196, 53.166, 53.166, 53.166, 150280.267978296, 530.937486741418, 252.04974122169, 221.313659307087, 1119.44905969548, -48306.1231917879, 0, ]
  - [6500, -48317.00618646, 1656.99760422727, -46660.0085822327, 1099.12469614233, 53.166, 53.166, 53.166, 150280.267978296, -1053.44416463165, -1322.68293941767, -1265.2913738011, -572.358180676172, -48317.00618646, 0, ]
  - [6600, -48328.4428762434, 1657.12001676866, -46671.3228594748, 1099.20589520202, 53.166, 53.166, 53.166, 150280.267978296, -1761.31793267396, -1832.16591386353, -1473.56277981115, -1978.22510434718, -48328.4428762434, 0, ]
  - [6700, -48312.9709039026, 1655.77604093074, -46657.1948629719, 1098.31440505701, 53.166, 53.166, 53.166, 150280.267978296, -271.446527679979, -56.6609224148711, -611.901293687211, -145.777366937851, -48312.9709039026, 0, ]
  - [6800, -48301.4736090782, 1654.48114675449, -46646.9924623237, 1097.45547190926, 53.166, 53.166, 53.166, 150280.267978296, 830.460923057519, 1000.33512274204, 12.2622285574307, 1478.78541787308, -48301.4736090782, 0, ]
  - [6900, -48304.9774686684, 1627.24443266586, -46677.7330360026, 1079.38873178833, 53.166, 53.166, 53.166, 150280.267978296, 875.182662292661, 897.944691609264, 629.040166863086, 1098.56312840563, -48304.9774686684, 0, ]
  - [7000, -48329.0808853641, 1642.70981504386, -46686.3710703203, 1089.64727631704, 53.166, 53.166, 53.166, 150280.267978296, -1791.40525700401, -2124.81108461686, -2087.86192722595, -1161.5427591692, -48329.0808853641, 0, ]
  - [7100, -48320.0841601251, 1650.18271759791, -46669.9014425272, 1094.60422479305, 53.166, 53.166, 53.166, 150280.267978296, -1333.80662671164, -1061.32239882057, -1876.80513988453, -1063.29234142981, -48320.0841601251, 0, ]
  - [7200, -48323.2506651356, 1646.61920363396, -46676.6314615017, 1092.24046386013, 53.166, 53.166, 53.166, 150280.267978296, -1041.65876740147, -1048.84398554014, -1546.68623690126, -529.446079763025, -48323.2506651356, 0, ]
  - [7300, -48315.2910439149, 1656.99937266991, -46658.2916712449, 1099.12586919109, 53.166, 53.166, 53.166, 150280.267978296, -500.697678666665, -875.803740380062, -530.357750988431, -95.9315446315005, -48315.2910439149, 0, ]
  - [7400, -48316.8866755603, 1658.96934717834, -46657.917328382, 1100.4325986803, 53.166, 53.166, 53.166, 150280.267978296, -485.222780488202, -597.989468666903, -798.540474070163, -59.1383987275343, -48316.8866755603, 0, ]
  - [7500, -48306.5926229111, 1636.97390591186, -46669.6187169993, 1085.84251560663, 53.166, 53.166, 53.166, 150280.267978296, 379.605391561755, 293.71184557445, 928.076338592224, -82.9720094814018, -48306.5926229111, 0, ]
  - [7600, -48303.0235940652, 1643.57009319415, -46659.453500871, 1090.21791863911, 53.166, 53.166, 53.166, 150280.267978296, 840.054432991028, 929.196121620578, 1237.77934363595, 353.187833716561, -48303.0235940652, 0, ]
  - [7700, -48296.6154930561, 1661.22482489556, -46635.3906681605, 1101.92870902727, 53.166, 53.166, 53.166, 150280.267978296, 1489.57908461605, 1175.99105354768, 2318.25663484396, 974.489565456519, -48296.6154930561, 0, ]
  - [7800, -48295.9556508688, 1644.2316939148, -46651.723956954, 1090.65677364361, 53.166, 53.166, 53.166, 150280.267978296, 860.913801868235, 1058.31573438105, 1336.52505424979, 187.900616973866, -48295.9556508688, 0, ]
  - [7900, -48310.6838982558, 1670.13102613259, -46640.5528721232, 1107.83639754985, 53.166, 53.166, 53.166, 150280.267978296, 92.3703461036022, 1024.9877425542, -683.150070694003, -64.7266335493877, -48310.6838982558, 0, ]
  - [8000, -48304.6596918689, 1652.29868816531, -46652.3610037036, 1096.00779683263, 53.166, 53.166, 53.166, 150280.267978296, 559.269286449262, 780.974744643586, -89.3943621971467, 986.227476901341, -48304.6596918689, 0, ]
  - [8100, -48333.2737050544, 1659.22865398812, -46674.0450510663, 1100.60460286291, 53.166, 53.166, 53.166, 150280.267978296, -1663.40933498755, -1152.57415454957, -2384.26251443789, -1453.39133597518, -48333.2737050544, 0, ]
  - [8200, -48318.0072955893, 1648.0957028864, -46669.9115927029, 1093.21985983997, 53.166, 53.166, 53.166, 150280.267978296, -765.561670680938, -272.561449923571, -446.38248466544, -1577.7410774538, -48318.0072955893, 0, ]
  - [8300, -48320.4138523869, 1662.16058664367, -46658.2532657432, 1102.54942135928, 53.166, 53.166, 53.166, 150280.267978296, -1164.07221644231, -605.801664146701, -1294.83860037478, -1591.57638480546, -48320.4138523869, 0, ]
  - [8400, -48328.9891567296, 1656.8969397448, -46672.0922169848, 1099.05792307131, 53.166, 53.166, 53.166, 150280.267978296, -1565.27523156089, -1434.87492768733, -1550.70470472238, -1710.24606227297, -48328.9891567296, 0, ]
  - [8500, -48287.1223381406, 1647.19227198021, -46639.9300661604, 1092.62059330047, 53.166, 53.166, 53.166, 150280.267978296, 1944.05865452446, 1922.17073568039, 1716.25216200938, 2193.75306588359, -48287.1223381406, 0, ]
  - [8600, -48295.1262973883, 1674.71513044356, -46620.4111669448, 1110.87713957931, 53.166, 53.166, 53.166, 150280.267978296, 1427.32253097413, 1439.60374379611, 935.352257675268, 1907.01159145101, -48295.1262973883, 0, ]
  - [8700, -48299.4703232794, 1657.82007226018, -46641.6502510192, 1099.67025814221, 53.166, 53.166, 53.166, 150280.267978296, 406.808339893398, 641.715668435483, -431.758813727356, 1010.46816497206, -48299.4703232794, 0, ]
  - [8800, -48308.7831859982, 1644.14461881026, -46664.638567188, 1090.59901472013, 53.166, 53.166, 53.166, 150280.267978296, -122.58636110214, -256.760461017222, 573.520531651857, -684.51915394105, -48308.7831859982, 0, ]
  - [8900, -48318.8062448548, 1668.35759551843, -46650.4486493364, 1106.66004015504, 53.166, 53.166, 53.166, 150280.267978296, -445.739028179481, -136.561195074116, -1378.53950016613, 177.883610701806, -48318.8062448548, 0, ]
  - [9000, -48310.3158885322, 1658.39269930969, -46651.9231892225, 1100.05009486026, 53.166, 53.166, 53.166, 150280.267978296, 90.3079366435118, 946.287988730333, -410.350021273522, -265.014157526278, -48310.3158885322, 0, ]
  - [9100, -48308.0703502211, 1651.9339381111, -46656.13641211, 1095.76584971606, 53.166, 53.166, 53.166, 150280.267978296, -789.566049803296, -1094.16824290654, -297.023618344401, -977.50628815894, -48308.0703502211, 0, ]
  - [9200, -48310.9304827699, 1638.83913845197, -46672.0913443179, 1087.07976733449, 53.166, 53.166, 53.166, 150280.267978296, -759.426459415631, -1149.85164501534, -340.585956958945, -787.841776272605, -48310.9304827699, 0, ]
  - [9300, -48311.5929027748, 1669.13928822224, -46642.4536145525, 1107.17855493946, 53.166, 53.166, 53.166, 150280.267978296, 131.472704521516, 359.804001439778, -323.822756472664, 358.436868597428, -48311.5929027748, 0, ]
  - [9400, -48315.5275582686, 1664.73933357849, -46650.7882246901, 1104.25996362798, 53.166, 53.166, 53.166, 150280.267978296, -955.51733881667, -1745.1643925291, -314.287017965023, -807.100605955886, -48315.5275582686, 0, ]
  - [9500, -48312.4925011447, 1677.2524811015, -46635.2400200432, 1112.56022274357, 53.166, 53.166, 53.166, 150280.267978296, -38.2531581017508, -1361.35031300522, 1163.66271542426, 82.9281232757143, -48312.4925011447, 0, ]
  - [9600, -48324.8022002475, 1666.48181691481, -46658.3203833327, 1105.41579298022, 53.166, 53.166, 53.166, 150280.267978296, -1055.32456934804, -1382.63065196378, -982.47466638436, -800.868389695979, -48324.8022002475, 0, ]
  - [9700, -48299.7851474493, 1655.78410767726, -46644.001039772, 1098.31975591587, 53.166, 53.166, 53.166, 150280.267978296, 890.68185230537, 272.073514927368, 263.228619194422, 2136.74342279433, -48299.7851474493, 0, ]
  - [9800, -48303.800516445, 1674.16965617823, -46629.6308602668, 1110.51531392874, 53.166, 53.166, 53.166, 150280.267978296, 1142.11772891232, -140.137742864074, 2012.55644831397, 1553.93448128705, -48303.800516445, 0, ]
  - [9900, -48318.0650585521, 1643.57390740934, -46674.4911511428, 1090.22044869595, 53.166, 53.166, 53.166, 150280.267978296, -618.158920440417, -1037.8833250607, -513.957424245684, -302.636012014871, -48318.0650585521, 0, ]
  - [10000, -48324.6690478262, 1652.86125401591, -46671.8077938103, 1096.38095972558, 53.166, 53.166, 53.166, 150280.267978296, -920.288647997148, -9.05301956336782, -1428.48612727817, -1323.32679714991, -48324.6690478262, 0, ]
  - [10100, -48291.8076056729, 1669.61040073994, -46622.1972049329, 1107.49105472917, 53.166, 53.166, 53.166, 150280.267978296, 2653.95124410738, 3200.42538144382, 1814.7113151928, 2946.71703568554, -48291.8076056729, 0, ]
  - [10200, -48287.142879902, 1653.15048260772, -46633.9923972943, 1096.57281171575, 53.166, 53.166, 53.166, 150280.267978296, 2476.63976137802, 2456.59472829676, 2688.04108682519, 2285.28346901209, -48287.142879902, 0, ]
  - [10300, -48311.7764814914, 1664.56396041903, -46647.2125210724, 1104.14363456986, 53.166, 53.166, 53.166, 150280.267978296, -994.097147495596, -1638.39704235799, -430.828872258151, -913.065527870649, -48311.7764814914, 0, ]
  - [10400, -48324.3628958131, 1681.6915180709, -46642.6713777422, 1115.50473826231, 53.166, 53.166, 53.166, 150280.267978296, -1078.38485077426, -799.999432072993, -2034.02177490323, -401.133345346541, -48324.3628958131, 0, ]
  - [10500, -48321.3829830578, 1645.82730729941, -46675.5556757584, 1091.71518077229, 53.166, 53.166, 53.166, 150280.267978296, -1137.47162035478, -1551.85196482584, -1372.83991503604, -487.722981202456, -48321.3829830578, 0, ]
  - [10600, -48305.1686768838, 1660.37211791667, -46644.7965589672, 1101.36308883767, 53.166, 53.166, 53.166, 150280.267978296, -63.753291210609, -442.700900262152, -109.554900408763, 360.995927039086, -48305.1686768838, 0, ]
  - [10700, -48301.6765767248, 1642.90147095643, -46658.7751057683, 1089.77440610053, 53.166, 53.166, 53.166, 150280.267978296, 622.388305370903, 627.296276339178, 114.947760993013, 1124.92087878052, -48301.6765767248, 0, ]
  - [10800, -48312.2686383939, 1656.20936297368, -46656.0592754202, 1098.60183755393, 53.166, 53.166, 53.166, 150280.267978296, 183.020075262849, 164.02475292046, 138.961050733105, 246.074422134985, -48312.2686383939, 0, ]
  - [10900, -48321.3152260016, 1651.62932756302, -46669.6858984386, 1095.56379451982, 53.166, 53.166, 53.166, 150280.267978296, -969.633064582085, -463.449801674436, -1930.81240407585, -514.636987995968, -48321.3152260016, 0, ]
  - [11000, -48297.9117068193, 1667.23077882583, -46630.6809279934, 1105.91259667552, 53.166, 53.166, 53.166, 150280.267978296, 1222.34734265948, 1701.47906807481, 976.772850443466, 988.790109460148, -48297.9117068193, 0, ]
  - [11100, -48315.3667554081, 1654.95885240108, -46660.4079030071, 1097.77234507329, 53.166, 53.166, 53.166, 150280.267978296, -866.807770058026, -877.74293453924, -46.3871167882531, -1676.29325884659, -48315.3667554081, 0, ]
  - [11200, -48308.5872969083, 1648.10418744999, -46660.4831094583, 1093.22548784652, 53.166, 53.166, 53.166, 150280.267978296, -61.5173626345108, 435.441040370168, -499.033969719167, -120.959158554534, -48308.5872969083, 0, ]
  - [11300, -48304.9898152026, 1659.56192332929, -46645.4278918733, 1100.82566809705, 53.166, 53.166, 53.166, 150280.267978296, 69.6661662133213, -693.011462157398, -58.4078089345325, 960.417769731892, -48304.9898152026, 0, ]
  - [11400, -48301.4044960016, 1641.2778548494, -46660.1266411522, 1088.69742412076, 53.166, 53.166, 53.166, 150280.267978296, 365.59556489677, 12.0089923670656, 254.089014259944, 830.688688063298, -48301.4044960016, 0, ]
  - [11500, -48310.9961770851, 1656.58941168234, -46654.4067654027, 1098.85393262055, 53.166, 53.166, 53.166, 150280.267978296, 306.464972555276, -149.95667015143, 974.642223778462, 94.709364038799, -48310.9961770851, 0, ]
  - [11600, -48304.7640690714, 1659.22012914042, -46645.5439399309, 1100.59894813498, 53.166, 53.166, 53.166, 150280.267978296, 1576.05067383994, 1457.16493258015, 657.691697794574, 2613.29539114509, -48304.7640690714, 0, ]
  - [11700, -48312.0015608108, 1662.51415684157, -46649.4874039692, 1102.78395261952, 53.166, 53.166, 53.166, 150280.267978296, 175.94950832008, 579.903675950171, 23.2049390919819, -75.2600900819178, -48312.0015608108, 0, ]
  - [11800, -48330.5187975536, 1662.13691661153, -46668.3818809421, 1102.53372048149, 53.166, 53.166, 53.166, 150280.267978296, -1616.70822049127, -1996.91119260151, -1166.03540749727, -1687.17806137502, -48330.5187975536, 0, ]
  - [11900, -48321.3882457669, 1653.77026862238, -46667.6179771445, 1096.98393006215, 53.166, 53.166, 53.166, 150280.267978296, -621.046952394785, -101.310693152919, -1025.94798273508, -735.882181296354, -48321.3882457669, 0, ]
  - [12000, -48309.7182095931, 1648.6415391588, -46661.0766704343, 1093.58192561817, 53.166, 53.166, 53.166, 150280.267978296, -568.022025847405, -739.720439953436, -1174.36146977443, 210.015832185649, -48309.7182095931, 0, ]
  - [12100, -48301.9384816311, 1670.78481099637, -46631.1536706347, 1108.27006811637, 53.166, 53.166, 53.166, 150280.267978296, 1598.3838792634, 909.017703683788, 2033.7310748834, 1852.40285922301, -48301.9384816311, 0, ]
  - [12200, -48305.929031168, 1635.58346399046, -46670.3455671775, 1084.92020343765, 53.166, 53.166, 53.166, 150280.267978296, 487.036196363456, 219.922429935939, 86.2626056929768, 1154.92355346146, -48305.929031168, 0, ]
  - [12300, -48311.850852776, 1653.22614880928, -46658.6247039668, 1096.62300285096, 53.166, 53.166, 53.166, 150280.267978296, -484.760256272582, -753.591714604882, -840.13370358835, 139.444649375485, -48311.850852776, 0, ]
  - [12400, -48306.3700574137, 1653.77886936372, -46652.59118805, 1096.98963513209, 53.166, 53.166, 53.166, 150280.267978296, -7.37116813702912, -62.4930373048434, -128.424107804289, 168.803640698045, -48306.3700574137, 0, ]
  - [12500, -48320.3453769913, 1664.48433643854, -46655.8610405528, 1104.09081814868, 53.166, 53.166, 53.166, 150280.267978296, -356.003078654757, -767.911849440218, -93.9378394914828, -206.159547032572, -48320.3453769913, 0, ]
  - [12600, -48298.8486078477, 1679.11730976204, -46619.7312980857, 1113.7972065688, 53.166, 53.166, 53.166, 150280.267978296, 1064.11474048623, 1184.26573500486, 1068.41011092957, 939.66837552424, -48298.8486078477, 0, ]
  - [12700, -48303.3280907559, 1662.20704846596, -46641.1210422899, 1102.58024055671, 53.166, 53.166, 53.166, 150280.267978296, 1153.50786879518, 1136.95602771984, 1019.91254000124, 1303.65503866446, -48303.3280907559, 0, ]
  - [12800, -48309.8258348037, 1649.82133015764, -46660.0045046461, 1094.3645081758, 53.166, 53.166, 53.166, 150280.267978296, 203.721313057536, 156.187362628841, -9.72153132434944, 464.698107868115, -48309.8258348037, 0, ]
  - [12900, -48307.8725048859, 1634.82547365855, -46673.0470312274, 1084.41741098272, 53.166, 53.166, 53.166, 150280.267978296, 96.9351469848801, -575.743694871067, 455.655666964538, 410.893468861165, -48307.8725048859, 0, ]
  - [13000, -48312.5976572706, 1664.186975581, -46648.4106816896, 1103.89357183923, 53.166, 53.166, 53.166, 150280.267978296, 384.399514502833, -289.043981431769, 780.143243655139, 662.099281285121, -48312.5976572706, 0, ]
  - [13100, -48330.5340191886, 1662.23764512281, -46668.2963740658, 1102.60053602429, 53.166, 53.166, 53.166, 150280.267978296, -1999.18980573916, -2794.12431505078, -1466.5089876115, -1736.9361145552, -48330.5340191886, 0, ]
  - [13200, -48321.4208277471, 1639.44824136717, -46681.97258638, 1087.48379933483, 53.166, 53.166, 53.166, 150280.267978296, -1737.83230303101, -1788.03068805469, -1493.77261939341, -1931.69360164494, -48321.4208277471, 0, ]
  - [13300, -48309.3988701382, 1644.68561570993, -46664.7132544283, 1090.95787043088, 53.166, 53.166, 53.166, 150280.267978296, -244.167997571579, -97.6389133782653, -765.917761008628, 131.052681672157, -48309.3988701382, 0, ]
  - [13400, -48313.1614875952, 1660.83537319876, -46652.3261143964, 1101.67037674193, 53.166, 53.166, 53.166, 150280.267978296, 255.539905712343, 136.94948972695, 359.105267439064, 270.56495997102, -48313.1614875952, 0, ]
  - [13500, -48302.7033444914, 1667.60925315103, -46635.0940913403, 1106.1636474173, 53.166, 53.166, 53.166, 150280.267978296, 1099.97025199356, 311.354726582718, 2142.08707087317, 846.468958524791, -48302.7033444914, 0, ]
  - [13600, -48292.7387401621, 1659.13806733551, -46633.6006728266, 1100.54451464868, 53.166, 53.166, 53.166, 150280.267978296, 1366.20817168654, 1422.00189842621, 1260.4531248404, 1416.169491793, -48292.7387401621, 0, ]
  - [13700, -48319.2694605394, 1656.40673975576, -46662.8627207836, 1098.732762122, 53.166, 53.166, 53.166, 150280.267978296, -836.873250187216, -1548.57034035184, 17.0620482930932, -979.111458502902, -48319.2694605394, 0, ]
  - [13800, -48311.1442182767, 1649.6761252715, -46661.4680930052, 1094.2681904286, 53.166, 53.166, 53.166, 150280.267978296, 758.451021705834, 627.017484737534, 222.014434530283, 1426.32114584969, -48311.1442182767, 0, ]
  - [13900, -48308.4413123376, 1656.62227049022, -46651.8190418474, 1098.87572862504, 53.166, 53.166, 53.166, 150280.267978296, 253.87377752992, -36.8366051674748, -306.759763531883, 1105.21770128912, -48308.4413123376, 0, ]
  - [14000, -48303.276940229, 1656.34216975659, -46646.9347704724, 1098.68993135355, 53.166, 53.166, 53.166, 150280.267978296, 760.651691164302, 1182.14931026717, -293.042571211342, 1392.84833443708, -48303.276940229, 0, ]
  - [14100, -48327.1295605452, 1659.55684280159, -46667.5727177436, 1100.82229806595, 53.166, 53.166, 53.166, 150280.267978296, -1679.83949220704, -1686.73632333234, -1272.65912139234, -2080.12303189646, -48327.1295605452, 0, ]
  - [14200, -48310.3907945795, 1660.43973187094, -46649.9510627086, 1101.40793873169, 53.166, 53.166, 53.166, 150280.267978296, 88.80017574021, -980.085915338292, 541.579033259602, 704.907409299317, -48310.3907945795, 0, ]
  - [14300, -48312.4058724442, 1657.34799863782, -46655.0578738064, 1099.35712082964, 53.166, 53.166, 53.166, 150280.267978296, 87.4455314255544, -301.547316598198, 679.833013296932, -115.949102422071, -48312.4058724442, 0, ]
  - [14400, -48324.2540046763, 1639.58075371314, -46684.6732509632, 1087.57169782764, 53.166, 53.166, 53.166, 150280.267978296, -1453.26814439377, -922.140529295072, -1399.22756103209, -2038.43634285413, -48324.2540046763, 0, ]
  - [14500, -48312.7456733408, 1666.27355185815, -46646.4721214827, 1105.2776459687, 53.166, 53.166, 53.166, 150280.267978296, -259.784520796984, -191.016983928592, -225.230488536979, -363.106089925386, -48312.7456733408, 0, ]
  - [14600, -48315.3195658148, 1639.38688299426, -46675.9326828205, 1087.44309891208, 53.166, 53.166, 53.166, 150280.267978296, -866.598241987408, -955.193223231413, -837.562974804663, -807.038527926149, -48315.3195658148, 0, ]
  - [14700, -48308.501524674, 1673.30879226408, -46635.1927324099, 1109.944283056, 53.166, 53.166, 53.166, 150280.267978296, 675.849223730038, 376.092138667237, 1345.77346302299, 305.682069499878, -48308.501524674, 0, ]
  - [14800, -48301.3348570468, 1659.86817028524, -46641.4666867615, 1101.02880876035, 53.166, 53.166, 53.166, 150280.267978296, 530.908390282083, -529.737581014573, 610.138356392805, 1512.32439546802, -48301.3348570468, 0, ]
  - [14900, -48331.1569876179, 1670.84508690865, -46660.3119007092, 1108.31005051803, 53.166, 53.166, 53.166, 150280.267978296, -2290.55260001109, -1869.0677803135, -3145.40943574038, -1857.18058397939, -48331.1569876179, 0, ]
  - [15000, -48301.1576294397, 1635.79358100658, -46665.3640484331, 1085.05957889656, 53.166, 53.166, 53.166, 150280.267978296, 836.452645698342, 887.986360640843, 587.006137286859, 1034.36543916732, -48301.1576294397, 0, ]
  - [15100, -48303.3512814666, 1678.4897077564, -46624.8615737102, 1113.38090369547, 53.166, 53.166, 53.166, 150280.267978296, 1371.69392250837, 1860.54950979085, 1616.34139734387, 638.190860390374, -48303.3512814666, 0, ]
  - [15200, -48319.255233961, 1679.83687141658, -46639.4183625444, 1114.27450839645, 53.166, 53.166, 53.166, 150280.267978296, -719.01011138013, -547.041168678398, -684.563209170563, -925.42595629142, -48319.255233961, 0, ]
  - [15300, -48307.1258670851, 1679.75235991785, -46627.3735071672, 1114.21844997179, 53.166, 53.166, 53.166, 150280.267978296, 359.444325111799, 476.890411265682, -270.344407207254, 871.786971276971, -48307.1258670851, 0, ]
  - [15400, -48316.1012685769, 1661.8706314096, -46654.2306371673, 1102.35708737055, 53.166, 53.166, 53.166, 150280.267978296, -788.325946679634, -706.281910765541, -1097.88549749377, -560.810431779592, -48316.1012685769, 0, ]
  - [15500, -48321.698933966, 1664.93650151646, -46656.7624324496, 1104.39074966494, 53.166, 53.166, 53.166, 150280.267978296, -1187.51524351855, -264.531787938747, -2158.3189626014, -1139.69498001552, -48321.698933966, 0, ]
  - [15600, -48307.752209813, 1656.94356925134, -46650.8086405616, 1099.08885349757, 53.166, 53.166, 53.166, 150280.267978296, 57.618490021227, 480.371538388296, 33.0933067537528, -340.609375078368, -48307.752209813, 0, ]
  - [15700, -48306.2720161593, 1678.8354445467, -46627.4365716126, 1113.61023887593, 53.166, 53.166, 53.166, 150280.267978296, 210.112482434638, 651.569035973938, -1033.5187741788, 1012.28718550877, -48306.2720161593, 0, ]
  - [15800, -48288.7678558425, 1661.11100410654, -46627.6568517359, 1101.85320907493, 53.166, 53.166, 53.166, 150280.267978296, 2320.11115289847, 2524.87541706794, 1321.1303190864, 3114.32772254106, -48288.7678558425, 0, ]
  - [15900, -48308.4657672363, 1678.48500275734, -46629.980764479, 1113.37778276117, 53.166, 53.166, 53.166, 150280.267978296, 740.58306152485, 1235.00722781748, -142.293833887558, 1129.03579064463, -48308.4657672363, 0, ]
  - [16000, -48293.5395005585, 1667.90794957009, -46625.6315509884, 1106.36177963548, 53.166, 53.166, 53.166, 150280.267978296, 2323.84533423162, 2357.30033517034, 1989.35797249794, 2624.8776950266, -48293.5395005585, 0, ]
  - [16100, -48313.9983806713, 1649.71800085417, -46664.2803798171, 1094.2959674676, 53.166, 53.166, 53.166, 150280.267978296, -333.134618954849, -549.150458965684, -144.704365690696, -305.549032208165, -48313.9983806713, 0, ]
  - [16200, -48308.0359519595, 1651.08689246074, -46656.9490594988, 1095.20398481614, 53.166, 53.166, 53.166, 150280.267978296, 92.2825854957231, 492.785673941139, -131.002402429494, -84.9355150244734, -48308.0359519595, 0, ]
  - [16300, -48304.1310163884, 1637.70505309652, -46666.4259632919, 1086.3275023834, 53.166, 53.166, 53.166, 150280.267978296, 822.861511662802, 1651.48760748772, -35.0029740817518, 852.099901582434, -48304.1310163884, 0, ]
  - [16400, -48312.9213784735, 1658.08932285782, -46654.8320556157, 1099.84885826847, 53.166, 53.166, 53.166, 150280.267978296, -324.538528268956, -195.480865087179, -209.85119543681, -568.283524282881, -48312.9213784735, 0, ]
  - [16500, -48312.5032833709, 1646.10082306977, -46666.4024603012, 1091.8966100859, 53.166, 53.166, 53.166, 150280.267978296, 12.0038791641065, 754.091624964548, 32.0868500760738, -750.1668375483, -48312.5032833709, 0, ]
  - [16600, -48305.0066388692, 1669.26121032616, -46635.7454285431, 1107.25942868067, 53.166, 53.166, 53.166, 150280.267978296, 386.282134297755, 247.293089604775, 1025.53891319274, -113.985599904248, -48305.0066388692, 0, ]
  - [16700, -48312.301130334, 1655.83197947632, -46656.4691508577, 1098.35151038338, 53.166, 53.166, 53.166, 150280.267978296, -815.220820014684, -1297.1925196658, -558.144454490838, -590.325485887413, -48312.301130334, 0, ]
  - [16800, -48314.31173178, 1671.01973920989, -46643.2919925701, 1108.42590141428, 53.166, 53.166, 53.166, 150280.267978296, -111.385227544848, 848.315913903219, -418.675494802172, -763.796101735587, -48314.31173178, 0, ]
  - [16900, -48325.4152411002, 1656.67205243058, -46668.7431886696, 1098.9087501333, 53.166, 53.166, 53.166, 150280.267978296, -1078.80242776592, -906.498805822979, -1613.22557659724, -716.682900877552, -48325.4152411002, 0, ]
  - [17000, -48318.0594011622, 1663.41616393605, -46654.6432372261, 1103.3822747119, 53.166, 53.166, 53.166, 150280.267978296, -687.12343455458, -801.117130947647, -948.530355442816, -311.722817273284, -48318.0594011622, 0, ]
  - [17100, -48308.8818921929, 1653.50442019351, -46655.3774719994, 1096.80758667285, 53.166, 53.166, 53.166, 150280.267978296, 20.014708396027, -20.1566138349452, -365.540295001622, 445.741034024661, -48308.8818921929, 0, ]
  - [17200, -48280.7676312089, 1653.75353278368, -46627.0140984252, 1096.97282879466, 53.166, 53.166, 53.166, 150280.267978296, 2782.12781517621, 2951.00285106399, 2855.59820348202, 2539.7823909826, -48280.7676312089, 0, ]
  - [17300, -48306.1089289761, 1676.40345021634, -46629.7054787597, 1111.99704099166, 53.166, 53.166, 53.166, 150280.267978296, -303.895757737882, -410.99574918256, 93.3925873115036, -594.084111342579, -48306.1089289761, 0, ]
  - [17400, -48307.2368169134, 1658.52680044104, -46648.7100164724, 1100.13904723102, 53.166, 53.166, 53.166, 150280.267978296, 308.906796292369, 160.480925067842, 95.9411195868799, 670.298344222388, -48307.2368169134, 0, ]
  - [17500, -48325.1033202906, 1676.24992548039, -46648.8533948102, 1111.89520449635, 53.166, 53.166, 53.166, 150280.267978296, -807.870824035453, -1824.75093187677, -472.71465733347, -126.146882896114, -48325.1033202906, 0, ]
  - [17600, -48293.5186424989, 1639.53108325157, -46653.9875592474, 1087.53875026582, 53.166, 53.166, 53.166, 150280.267978296, 1041.38437125729, 1206.47117636827, 856.754719456469, 1060.92721794711, -48293.5186424989, 0, ]
  - [17700, -48314.0167177172, 1681.14627880618, -46632.870438911, 1115.14306849307, 53.166, 53.166, 53.166, 150280.267978296, -530.595817062378, -184.689325100836, -661.888161418471, -745.209964667827, -48314.0167177172, 0, ]
  - [17800, -48300.1802349959, 1681.01608725898, -46619.1641477369, 1115.05670943957, 53.166, 53.166, 53.166, 150280.267978296, 917.479982979045, 234.949896740145, 1705.52979395285, 811.960258244146, -48300.1802349959, 0, ]
  - [17900, -48307.6630705556, 1666.04766835116, -46641.6154022045, 1105.12781223307, 53.166, 53.166, 53.166, 150280.267978296, 235.9877076598, -30.0636533755217, 645.570778268943, 92.4559980859733, -48307.6630705556, 0, ]
  - [18000, -48299.8619410062, 1637.59704882295, -46662.2648921832, 1086.2558606598, 53.166, 53.166, 53.166, 150280.267978296, 737.121750624808, 115.161623506463, 1807.27257596995, 288.93105239801, -48299.8619410062, 0, ]
  - [18100, -48301.5335031944, 1670.07781211343, -46631.4556910809, 1107.80109946463, 53.166, 53.166, 53.166, 150280.267978296, 1136.59762425694, 316.707698098875, 2098.84517333996, 994.240001331986, -48301.5335031944, 0, ]
  - [18200, -48303.3612435282, 1653.67013239167, -46649.6911111366, 1096.9175073927, 53.166, 53.166, 53.166, 150280.267978296, 971.563116994323, 287.809392085606, 1302.98368558483, 1323.89627331253, -48303.3612435282, 0, ]
  - [18300, -48315.9247433312, 1657.55069732224, -46658.374046009, 1099.49157553817, 53.166, 53.166, 53.166, 150280.267978296, -861.555528462328, -467.858177311738, -1527.31860251532, -589.489805559927, -48315.9247433312, 0, ]
  - [18400, -48307.1201664659, 1662.78244454147, -46644.3377219244, 1102.96191403351, 53.166, 53.166, 53.166, 150280.267978296, 138.314072609196, -574.42683437707, 939.177561005694, 50.1914911989646, -48307.1201664659, 0, ]
  - [18500, -48307.7586075797, 1667.11263193031, -46640.6459756494, 1105.83422711704, 53.166, 53.166, 53.166, 150280.267978296, 533.70817390717, 747.84847062334, 229.060488589931, 624.215562508243, -48307.7586075797, 0, ]
  - [18600, -48278.6707389107, 1647.64032691264, -46631.030411998, 1092.9177984625, 53.166, 53.166, 53.166, 150280.267978296, 2550.17368466409, 3237.54077252409, 1979.41127492926, 2433.56900653892, -48278.6707389107, 0, ]
  - [18700, -48291.0841562714, 1668.60302119193, -46622.4811350795, 1106.82283666007, 53.166, 53.166, 53.166, 150280.267978296, 1980.66510144084, 2450.8614450325, 1661.20793159663, 1829.92592769337, -48291.0841562714, 0, ]
  - [18800, -48293.3102428572, 1659.90426771223, -46633.405975145, 1101.05275301553, 53.166, 53.166, 53.166, 150280.267978296, 2208.81549150795, 2567.27279050121, 2535.13464637484, 1524.03903764781, -48293.3102428572, 0, ]
  - [18900, -48312.4976280681, 1668.02177089705, -46644.4758571711, 1106.43727994465, 53.166, 53.166, 53.166, 150280.267978296, -600.909308502554, -470.533001625125, -939.838762448918, -392.356161433623, -48312.4976280681, 0, ]
  - [19000, -48331.3015722787, 1663.54998411279, -46667.7515881659, 1103.471040719, 53.166, 53.166, 53.166, 150280.267978296, -2048.71974987737, -2280.87812533156, -1230.39348831813, -2634.8876359824, -48331.3015722787, 0, ]
  - [19100, -48326.6946400994, 1655.43498226492, -46671.2596578345, 1098.08817298432, 53.166, 53.166, 53.166, 150280.267978296, -1532.74613770839, -1986.94890748379, -1162.95781296787, -1448.33169267349, -48326.6946400994, 0, ]
  - [19200, -48331.5494221278, 1638.99110779511, -46692.5583143327, 1087.18057210191, 53.166, 53.166, 53.166, 150280.267978296, -2455.53525995084, -1732.46604479553, -2270.17884120453, -3363.96089385248, -48331.5494221278, 0, ]
  - [19300, -48296.9100015945, 1633.09877381021, -46663.8112277843, 1083.27205118178, 53.166, 53.166, 53.166, 150280.267978296, 779.959376161256, 605.033584089765, 1033.63691562292, 701.207628771081, -48296.9100015945, 0, ]
  - [19400, -48304.4093666472, 1662.10111668264, -46642.3082499646, 1102.50997356365, 53.166, 53.166, 53.166, 150280.267978296, 637.532267400911, 274.917094995114, 392.608864152918, 1245.07084305471, -48304.4093666472, 0, ]
  - [19500, -48299.9557485399, 1679.03294470816, -46620.9228038317, 1113.74124528439, 53.166, 53.166, 53.166, 150280.267978296, 862.373423264161, 298.358615285443, 236.99311222727, 2051.76854227977, -48299.9557485399, 0, ]
  - [19600, -48288.9445057703, 1653.54785920363, -46635.3966465667, 1096.8364007693, 53.166, 53.166, 53.166, 150280.267978296, 1642.37896401176, 2330.64075554517, 1352.49455597409, 1244.00158051601, -48288.9445057703, 0, ]
  - [19700, -48304.31560171, 1661.91236194508, -46642.4032397649, 1102.38476819641, 53.166, 53.166, 53.166, 150280.267978296, 978.903710219857, 1590.55185527181, 487.171621558035, 858.987653829727, -48304.31560171, 0, ]
  - [19800, -48303.0212981711, 1658.95742158231, -46644.0638765888, 1100.42468815763, 53.166, 53.166, 53.166, 150280.267978296, 375.035875589793, 406.737229327748, 859.252449191627, -140.882051749995, -48303.0212981711, 0, ]
  - [19900, -48326.5934346986, 1655.73611788443, -46670.8573168142, 1098.28792318037, 53.166, 53.166, 53.166, 150280.267978296, -1799.31282515084, -1372.17780036631, -1637.10786024791, -2388.65281483829, -48326.5934346986, 0, ]
  - [20000, -48317.9457393411, 1663.78992037337, -46654.1558189677, 1103.63019596994, 53.166, 53.166, 53.166, 150280.267978296, -1230.95560766536, -287.925896011792, -1435.62376795113, -1969.31715903316, -50021.8244577643, 0, ]
...
Loop time of 19.0726 on 64 procs for 20000 steps with 11664 atoms

Performance: 90.601 ns/day, 0.265 hours/ns, 1048.625 timesteps/s, 12.231 Matom-step/s
75.9% CPU use with 64 MPI tasks x 1 OpenMP threads

MPI task timing breakdown:
Section |  min time  |  avg time  |  max time  |%varavg| %total
---------------------------------------------------------------
Pair    | 11.474     | 11.882     | 12.13      |   3.5 | 62.30
Neigh   | 0.040939   | 0.042222   | 0.045702   |   0.4 |  0.22
Comm    | 4.3385     | 4.6503     | 5.08       |   6.1 | 24.38
Output  | 0.027577   | 0.028989   | 0.10795    |   5.8 |  0.15
Modify  | 1.8084     | 1.945      | 2.0858     |   4.9 | 10.20
Other   |            | 0.5239     |            |       |  2.75

Nlocal:         182.25 ave         192 max         173 min
Histogram: 1 5 9 8 10 10 10 7 2 2
Nghost:        1274.88 ave        1285 max        1266 min
Histogram: 3 3 13 5 12 8 8 10 1 1
Neighs:        7166.98 ave        7621 max        6814 min
Histogram: 5 6 8 7 12 10 9 3 1 3

Total # of neighbors = 458687
Ave neighs/atom = 39.325017
Neighbor list builds = 116
Dangerous builds = 0
fix fpf all print 1 "${dE} ${lambda}" title "# dE [eV] lambda" screen no file data/forward_${T}K.dat
fix fpf all print 1 "${dE} ${lambda}" title "# dE [eV] lambda" screen no file data/forward_1100K.dat
run ${t}
run 100000
Per MPI rank memory allocation (min/avg/max) = 3.736 | 3.736 | 3.736 Mbytes
---
keywords: ['Step', 'PotEng', 'KinEng', 'TotEng', 'Temp', 'Lx', 'Ly', 'Lz', 'Volume', 'Press', 'Pxx', 'Pyy', 'Pzz', 'v_dE', 'v_lambda', ]
data:
  - [20000, -48317.9457393411, 1663.78992037337, -46654.1558189677, 1103.63019596994, 53.166, 53.166, 53.166, 150280.267978296, -1230.95560766536, -287.925896011801, -1435.62376795116, -1969.31715903314, -50021.8244577643, 0, ]
  - [20100, -48314.3419285963, 1675.2181272594, -46639.1238013369, 1111.21078895874, 53.166, 53.166, 53.166, 150280.267978296, -796.633633383775, 256.750674148967, -1198.63191437867, -1448.01965992162, -50059.8179171457, 1.2558053968507e-13, ]
  - [20200, -48300.6933835129, 1647.74158693496, -46652.9517965779, 1092.98496656883, 53.166, 53.166, 53.166, 150280.267978296, 1511.60905881297, 1375.88309300429, 2470.20273929585, 688.741344138783, -50081.3873162293, 4.00518903939584e-12, ]
  - [20300, -48305.2782540948, 1653.87019264217, -46651.4080614526, 1097.05021196721, 53.166, 53.166, 53.166, 150280.267978296, 450.984842150108, 381.909901096639, -531.291911418706, 1502.3365367724, -50115.8797022562, 3.03129989146628e-11, ]
  - [20400, -48311.2052001845, 1661.35505721189, -46649.8501429726, 1102.01509512388, 53.166, 53.166, 53.166, 150280.267978296, -239.722958817544, 284.052779261028, -742.701681790909, -260.519973922746, -50139.9676531541, 1.2731250673451e-10, ]
  - [20500, -48309.0200786676, 1659.02845000619, -46649.9916286614, 1100.47180294802, 53.166, 53.166, 53.166, 150280.267978296, 242.517381861673, 658.702790416155, -107.486479312389, 176.335834481254, -50188.9382818333, 3.87229564589844e-10, ]
  - [20600, -48312.5453488464, 1644.17722574394, -46668.3681231024, 1090.62064365067, 53.166, 53.166, 53.166, 150280.267978296, -731.392457255785, -637.339444094901, -352.068271476924, -1204.76965619553, -50194.0262173161, 9.60331117066399e-10, ]
  - [20700, -48333.7938721495, 1646.74532222756, -46687.0485499219, 1092.32412122965, 53.166, 53.166, 53.166, 150280.267978296, -1963.48527229313, -694.004429448334, -2409.35681173615, -2787.09457569489, -50178.6714035872, 2.06871232013244e-09, ]
  - [20800, -48321.6388186954, 1645.73731012927, -46675.9015085661, 1091.65548357537, 53.166, 53.166, 53.166, 150280.267978296, -1304.00994658741, -990.276409959192, -1582.0291012182, -1339.72432858485, -50193.3727417574, 4.0197947066522e-09, ]
  - [20900, -48303.3443794952, 1657.3022553044, -46646.0421241908, 1099.32677822243, 53.166, 53.166, 53.166, 150280.267978296, 1307.93279848335, 1834.59914491262, 1087.01148366249, 1002.18776687493, -50220.1288062394, 7.21953805066232e-09, ]
  - [21000, -48329.7956642036, 1647.10758945819, -46682.6880747454, 1092.56442143212, 53.166, 53.166, 53.166, 150280.267978296, -2037.71815876561, -1932.6009995191, -2637.57407515096, -1542.97940162677, -50204.8430634993, 1.218536857e-08, ]
  - [21100, -48310.5596473476, 1640.71788344942, -46669.8417638982, 1088.32598218669, 53.166, 53.166, 53.166, 150280.267978296, -36.5314806951936, 270.385509720711, -437.804198494423, 57.824246688132, -50220.8357005379, 1.95588260943488e-08, ]
  - [21200, -48317.2124052819, 1661.27576007879, -46655.9366452032, 1101.9624955081, 53.166, 53.166, 53.166, 150280.267978296, -939.215586856987, -1643.9460154346, -878.582908781794, -295.117836354559, -50179.8996068766, 3.01179328132704e-08, ]
  - [21300, -48319.009361569, 1646.96569409348, -46672.0436674755, 1092.47029896674, 53.166, 53.166, 53.166, 150280.267978296, -452.573944960959, -1057.62654778629, 257.370216664931, -557.465503761516, -50178.4241808515, 4.47892862063179e-08, ]
  - [21400, -48320.6894469261, 1659.67237464775, -46661.0170722783, 1100.89893300192, 53.166, 53.166, 53.166, 150280.267978296, -484.143144015996, -329.10606201829, -832.555884547436, -290.767485482276, -50185.7870815695, 6.46598787448807e-08, ]
  - [21500, -48315.4964007029, 1664.46045081462, -46651.0359498882, 1104.07497426389, 53.166, 53.166, 53.166, 150280.267978296, -775.712560048693, -527.730189794574, -643.612592168595, -1155.79489818292, -50207.4467995595, 9.09886469429883e-08, ]
  - [21600, -48303.1898060134, 1665.60593508227, -46637.5838709311, 1104.83480037614, 53.166, 53.166, 53.166, 150280.267978296, 1206.87335232232, 960.452923494398, 1819.82262927082, 840.344504201744, -50196.7532279161, 1.25217752321905e-07, ]
  - [21700, -48311.0920291947, 1671.17646598731, -46639.9155632074, 1108.52986189748, 53.166, 53.166, 53.166, 150280.267978296, -19.4412378259272, -513.256763218131, -183.266439494482, 638.199489234829, -50173.3607853159, 1.68983596840977e-07, ]
  - [21800, -48317.4552321934, 1658.05665733347, -46659.39857486, 1099.8271904734, 53.166, 53.166, 53.166, 150280.267978296, -675.203484001815, -510.86015461268, -1358.114686127, -156.635611265759, -50111.3077312799, 2.24127575334849e-07, ]
  - [21900, -48304.8429945203, 1675.32353861118, -46629.5194559091, 1111.28071073756, 53.166, 53.166, 53.166, 150280.267978296, 289.566840249835, -128.722716795909, 903.743376001679, 93.6798615437288, -50110.260475865, 2.92706567484841e-07, ]
  - [22000, -48319.5989101039, 1677.64578923756, -46641.9531208663, 1112.82111309395, 53.166, 53.166, 53.166, 150280.267978296, -600.682069124313, -419.844068080159, -212.371141621546, -1169.83099767124, -50124.38620107, 3.7700317184e-07, ]
  - [22100, -48301.0967656163, 1641.94567048815, -46659.1510951281, 1089.14040162365, 53.166, 53.166, 53.166, 150280.267978296, 1181.36117547871, 1015.45753810944, 2000.06179436527, 528.564193961426, -50116.1344713731, 4.79535684391045e-07, ]
  - [22200, -48311.6621987041, 1649.4722914596, -46662.1899072445, 1094.13298276385, 53.166, 53.166, 53.166, 150280.267978296, -139.472489909118, 485.238791976567, -256.964731380676, -646.691530323234, -50134.9315117423, 6.03067824188202e-07, ]
  - [22300, -48306.3329603044, 1645.73536916087, -46660.5975911435, 1091.6541960863, 53.166, 53.166, 53.166, 150280.267978296, 782.328305138013, 769.469092439022, 1202.15108815972, 375.364734815303, -50144.8031424841, 7.50618208481703e-07, ]
  - [22400, -48323.1062589809, 1669.43334915384, -46653.6729098271, 1107.37361233198, 53.166, 53.166, 53.166, 150280.267978296, -869.269941872995, -1276.07080147369, -464.433396377372, -867.305627767924, -50182.9322949329, 9.25469579851522e-07, ]
  - [22500, -48292.9773002032, 1661.32956378054, -46631.6477364226, 1101.99818474337, 53.166, 53.166, 53.166, 150280.267978296, 2353.9310661098, 2506.90155054484, 2349.0664878088, 2205.82515997575, -50161.9988832022, 1.13117778778076e-06, ]
  - [22600, -48315.2748311858, 1665.43780892588, -46649.8370222599, 1104.72327842216, 53.166, 53.166, 53.166, 150280.267978296, -283.546885373125, -226.137486943969, 58.1136618800777, -682.61683105548, -50174.5685223638, 1.37158052711496e-06, ]
  - [22700, -48298.4901708678, 1661.0734819656, -46637.4166889022, 1101.82831977415, 53.166, 53.166, 53.166, 150280.267978296, 295.675377926416, 761.115303641671, 61.8182569492036, 64.0925731883683, -50179.757217961, 1.65080583583745e-06, ]
  - [22800, -48301.4678204325, 1639.80121027872, -46661.6666101538, 1087.71793174797, 53.166, 53.166, 53.166, 150280.267978296, 397.541041487521, 879.750986542438, 791.605257882986, -478.733119962855, -50186.6923551867, 1.97328035457892e-06, ]
  - [22900, -48315.9906996994, 1659.76362310165, -46656.2270765977, 1100.9594602042, 53.166, 53.166, 53.166, 150280.267978296, -937.935821929039, -1315.59416029688, -513.545318391993, -984.667987098237, -50196.8496298105, 2.343737350267e-06, ]
  - [23000, -48320.6182412764, 1657.15474081961, -46663.4635004568, 1099.22892846522, 53.166, 53.166, 53.166, 150280.267978296, -1382.02819455375, -1132.034896353, -1456.23018184284, -1557.81950546541, -50156.7081510542, 2.76722450631e-06, ]
  - [23100, -48314.5741453103, 1666.83609048718, -46647.7380548231, 1105.65079080495, 53.166, 53.166, 53.166, 150280.267978296, -159.027284964903, -711.910772120057, 282.353899062111, -47.5249818367644, -50119.3387722641, 3.2491114816967e-06, ]
  - [23200, -48323.8489302157, 1650.66870558798, -46673.1802246277, 1094.92659182638, 53.166, 53.166, 53.166, 150280.267978296, -805.049035067514, -863.735409330451, -484.243389032506, -1067.16830683958, -50133.4490331919, 3.79509724138202e-06, ]
  - [23300, -48321.0850183085, 1660.09949752262, -46660.9855207859, 1101.1822534478, 53.166, 53.166, 53.166, 150280.267978296, -524.578441468847, -1563.90022128137, 777.96586368842, -787.800966813592, -50141.0222263109, 4.41121716031674e-06, ]
  - [23400, -48317.9248498364, 1663.27071538019, -46654.6541344562, 1103.28579533296, 53.166, 53.166, 53.166, 150280.267978296, -316.089582671537, -810.515446810834, 25.760357025656, -163.513658229433, -50115.8586100715, 5.10384990346721e-06, ]
  - [23500, -48297.4163977107, 1666.93780331863, -46630.478594392, 1105.71825927001, 53.166, 53.166, 53.166, 150280.267978296, 1163.18532761167, 1142.86718503624, 1619.6494903796, 727.039307419175, -50099.4216809662, 5.87972408415916e-06, ]
  - [23600, -48318.6633231488, 1676.82098269592, -46641.8423404529, 1112.27399990734, 53.166, 53.166, 53.166, 150280.267978296, -552.827346921889, 224.868418811282, -1105.76387819434, -777.586581382619, -50119.4329692441, 6.74592470306796e-06, ]
  - [23700, -48314.4621719092, 1658.60807230629, -46655.8540996029, 1100.19295673214, 53.166, 53.166, 53.166, 150280.267978296, -455.749141803887, 261.443564399785, -853.24738623464, -775.443603576799, -50095.4273933858, 7.70989937016563e-06, ]
  - [23800, -48313.4369261677, 1674.75218133475, -46638.6847448329, 1110.90171628926, 53.166, 53.166, 53.166, 150280.267978296, 115.82902394949, 168.314270018678, 302.498408095162, -123.325606265371, -50064.7421502468, 8.77946431192315e-06, ]
  - [23900, -48322.1015329624, 1674.49468013817, -46647.6068528242, 1110.7309098115, 53.166, 53.166, 53.166, 150280.267978296, -1164.45914202085, -1188.57173764101, -563.76167131541, -1741.04401710613, -50016.4937412839, 9.96281016605489e-06, ]
  - [24000, -48283.0649229162, 1634.91577758462, -46648.1491453315, 1084.47731165792, 53.166, 53.166, 53.166, 150280.267978296, 2741.06446369033, 2701.13093377406, 1996.17562770537, 3525.88682959157, -50019.6133148195, 1.126850756608e-05, ]
  - [24100, -48314.744803808, 1650.07322261228, -46664.6715811958, 1094.53159424579, 53.166, 53.166, 53.166, 150280.267978296, -129.555313199855, -743.891634292929, 440.358022206768, -85.1323275134055, -50057.4202045553, 1.2705512517964e-05, ]
  - [24200, -48321.800231633, 1672.08402564186, -46649.7162059912, 1109.13186713093, 53.166, 53.166, 53.166, 150280.267978296, -925.026283234802, -1577.13064114338, -602.501074633735, -595.447133927288, -50052.5050015974, 1.42831715710919e-05, ]
  - [24300, -48318.5692399811, 1650.53067364145, -46668.0385663396, 1094.83503205532, 53.166, 53.166, 53.166, 150280.267978296, -1234.54519990659, -1473.82086556058, -700.834479580683, -1528.98025457851, -50101.5865553086, 1.60112267858132e-05, ]
  - [24400, -48321.6624323403, 1663.52066269172, -46658.1417696485, 1103.4515911447, 53.166, 53.166, 53.166, 150280.267978296, -1349.14551819185, -888.436844776915, -943.186832348687, -2215.81287744995, -50108.4117654766, 1.78998204997854e-05, ]
  - [24500, -48296.3121790478, 1648.75695990472, -46647.555219143, 1093.65848685879, 53.166, 53.166, 53.166, 150280.267978296, 1324.30860435161, 833.175391093879, 1946.5561657546, 1193.19425620635, -50092.3618521606, 1.99594998953344e-05, ]
  - [24600, -48301.2238484968, 1679.14657437066, -46622.0772741261, 1113.8166184581, 53.166, 53.166, 53.166, 150280.267978296, 1307.97075878871, 1421.47051594311, 1859.95073650785, 642.491023915175, -50067.2842352331, 2.2201221370035e-05, ]
  - [24700, -48313.4602987464, 1680.59970367098, -46632.8605950755, 1114.78051261015, 53.166, 53.166, 53.166, 150280.267978296, 304.824799030763, 443.461965199978, 877.355516615211, -406.343084722894, -50028.3788714529, 2.46363547127047e-05, ]
  - [24800, -48301.8089466426, 1668.39188562359, -46633.417061019, 1106.682785572, 53.166, 53.166, 53.166, 150280.267978296, 812.765459923184, 1172.7958958582, 995.59249555856, 269.907988352802, -50076.0139071495, 2.7276687086994e-05, ]
  - [24900, -48319.5505471202, 1651.8939364741, -46667.6566106461, 1095.73931570841, 53.166, 53.166, 53.166, 150280.267978296, -602.399533405973, -436.207685117857, -698.083344841754, -672.907570258305, -50078.043603606, 3.01344268247409e-05, ]
  - [25000, -48305.3425212002, 1661.81970042017, -46643.52282078, 1102.32330367156, 53.166, 53.166, 53.166, 150280.267978296, 847.917953106577, 453.65770757049, 986.002976868528, 1104.09317488071, -50066.8161173076, 3.322220703125e-05, ]
  - [25100, -48330.3374628522, 1658.29082415973, -46672.0466386925, 1099.98251872559, 53.166, 53.166, 53.166, 150280.267978296, -1984.77232081264, -1738.74429375574, -2160.57628132235, -2054.99638735981, -50048.8584093737, 3.6553089004642e-05, ]
  - [25200, -48323.3958818809, 1650.83603182755, -46672.5598500533, 1095.0375831771, 53.166, 53.166, 53.166, 150280.267978296, -1042.17576121909, -485.058870089805, -1669.40869741658, -972.05971615088, -50031.5091159219, 4.01405654714096e-05, ]
  - [25300, -48295.4561492121, 1656.48699326821, -46638.9691559439, 1098.78599612624, 53.166, 53.166, 53.166, 150280.267978296, 1999.2494165445, 2457.00319650478, 1601.67672278613, 1939.06833034259, -49992.8121094521, 4.39985636403039e-05, ]
  - [25400, -48307.5570591812, 1645.89419133896, -46661.6628678422, 1091.75954649706, 53.166, 53.166, 53.166, 150280.267978296, 1012.18441273058, 1166.01305620309, 753.26394322885, 1117.27623875981, -50018.8087832459, 4.81414480766634e-05, ]
  - [25500, -48339.4554290624, 1654.85439620639, -46684.601032856, 1097.70305687218, 53.166, 53.166, 53.166, 150280.267978296, -2348.73640004072, -1717.39640618017, -2274.89286644092, -3053.91992750107, -50063.1812257128, 5.25840233992879e-05, ]
  - [25600, -48314.7391151488, 1639.72882876137, -46675.0102863874, 1087.66991941949, 53.166, 53.166, 53.166, 150280.267978296, -434.322028079741, 249.996625266138, -886.37171766794, -666.590991837416, -50052.5287775719, 5.7341536801945e-05, ]
  - [25700, -48322.0769448432, 1652.77462027476, -46669.3023245684, 1096.32349356861, 53.166, 53.166, 53.166, 150280.267978296, -1046.46739696143, -595.059854599712, -854.286399801329, -1690.05593648324, -50027.0128381542, 6.24296804015908e-05, ]
  - [25800, -48308.2164292708, 1640.23371487773, -46667.9827143931, 1088.0048220155, 53.166, 53.166, 53.166, 150280.267978296, -123.031363817437, 744.279490860515, -998.078034347092, -115.29554796573, -50001.2201364862, 6.78645934153687e-05, ]
  - [25900, -48304.9100376056, 1629.41188027031, -46675.4981573353, 1080.82644973286, 53.166, 53.166, 53.166, 150280.267978296, 201.633639625656, 424.053464507424, -41.7802660322187, 222.627720401759, -50009.5240656344, 7.36628641684442e-05, ]
  - [26000, -48312.1956250662, 1644.00149504495, -46668.1941300212, 1090.50407742834, 53.166, 53.166, 53.166, 150280.267978296, 79.8260327218656, -470.131337680146, 249.213732214026, 460.395703631706, -50026.6027507182, 7.98415319347201e-05, ]
  - [26100, -48311.4097186824, 1660.98463165948, -46650.4250870229, 1101.76938331856, 53.166, 53.166, 53.166, 150280.267978296, -809.982629402934, -1496.25392631922, -246.966044782158, -686.727917107418, -50021.9831465745, 8.64180886124637e-05, ]
  - [26200, -48321.4769079326, 1664.74917958395, -46656.7277283487, 1104.2664947103, 53.166, 53.166, 53.166, 150280.267978296, -931.767386047947, -1571.70033075644, -398.075129489814, -825.526697897587, -50015.8915936588, 9.34104802368714e-05, ]
  - [26300, -48325.1518009222, 1660.43603324554, -46664.7157676767, 1101.40548534823, 53.166, 53.166, 53.166, 150280.267978296, -1395.6799311178, -1241.93121438299, -1551.69339275432, -1393.4151862161, -50001.8155353274, 0.000100837108331577, ]
  - [26400, -48304.3977477469, 1635.92805608492, -46668.469691662, 1085.14877931498, 53.166, 53.166, 53.166, 150280.267978296, 446.039677569387, 481.583203756366, -80.1124321476819, 936.648261099474, -50027.2445899506, 0.000108716831101108, ]
  - [26500, -48304.5427356921, 1649.1644688021, -46655.37826689, 1093.92879690141, 53.166, 53.166, 53.166, 150280.267978296, 574.492161906777, 622.569520457716, 1003.5556389791, 97.3513262835234, -49987.6808810876, 0.000117068964466276, ]
  - [26600, -48301.3048187766, 1653.08713806929, -46648.2176807073, 1096.53079382365, 53.166, 53.166, 53.166, 150280.267978296, 1181.65059218893, 1014.02935234013, 500.420247842969, 2030.50217638368, -50012.9370483475, 0.000125913282944476, ]
  - [26700, -48308.6144945427, 1656.87532869501, -46651.7391658477, 1099.04358796396, 53.166, 53.166, 53.166, 150280.267978296, -533.477760147522, -655.632285971528, -174.366241844294, -770.43475262675, -49982.2414823029, 0.000135270020376872, ]
  - [26800, -48313.6633006486, 1674.22135233765, -46639.4419483109, 1110.54960518261, 53.166, 53.166, 53.166, 150280.267978296, -375.324566914765, -499.543275570478, -605.973325203118, -20.4570999706982, -49961.8153242893, 0.000145159870504403, ]
  - [26900, -48328.9151483982, 1692.28182689985, -46636.6333214984, 1122.52953416061, 53.166, 53.166, 53.166, 150280.267978296, -1496.42870353907, -1872.96203507707, -1127.99310635555, -1488.33096918459, -49934.292841101, 0.000155603987394582, ]
  - [27000, -48316.1379176112, 1650.44589402338, -46665.6920235878, 1094.77879578093, 53.166, 53.166, 53.166, 150280.267978296, -448.142969926336, -1177.66772754004, -4.0739404708127, -162.687241768144, -49931.7330280735, 0.00016662398572099, ]
  - [27100, -48312.9592706642, 1649.14116093016, -46663.818109734, 1093.91333625282, 53.166, 53.166, 53.166, 150280.267978296, -388.027631812455, -1098.96638808204, 354.648032904956, -419.764540260285, -49920.147372341, 0.000178241940897419, ]
  - [27200, -48296.676196629, 1653.65405635627, -46643.0221402727, 1096.90684378795, 53.166, 53.166, 53.166, 150280.267978296, 224.097584266809, -389.329521442842, 133.722345892732, 927.899928350542, -49896.378928639, 0.000190480389068545, ]
  - [27300, -48322.8885655559, 1652.99552128819, -46669.8930442677, 1096.47002230145, 53.166, 53.166, 53.166, 150280.267978296, -1100.25561772893, -844.574880270339, -771.916453196986, -1684.27551971947, -49909.7758820992, 0.000203362326959055, ]
  - [27400, -48293.1113695811, 1650.4272531957, -46642.6841163854, 1094.76643089035, 53.166, 53.166, 53.166, 150280.267978296, 2000.01239361438, 2268.32772065364, 792.252495932192, 2939.4569642573, -49904.7255805218, 0.000216911211583103, ]
  - [27500, -48302.9585956703, 1632.36190438337, -46670.5966912869, 1082.78326870991, 53.166, 53.166, 53.166, 150280.267978296, 802.415616082171, 558.970134031554, 370.874525247752, 1477.40218896721, -49916.8810401752, 0.000231150959815979, ]
  - [27600, -48306.7557476305, 1649.39955327455, -46657.356194356, 1094.08473384946, 53.166, 53.166, 53.166, 150280.267978296, 798.910813373814, 1145.94267889742, 454.429139517557, 796.360621706462, -49916.3579900372, 0.00024610594782986, ]
  - [27700, -48318.5221703035, 1658.19853498032, -46660.3236353232, 1099.9213011861, 53.166, 53.166, 53.166, 150280.267978296, -1643.38794440411, -315.514108030426, -2363.82860339163, -2250.82112179027, -49909.9796091489, 0.000261801010395495, ]
  - [27800, -48300.9990336132, 1661.04144763055, -46639.9575859826, 1101.80707066149, 53.166, 53.166, 53.166, 150280.267978296, 1513.09546008052, 1597.57157273832, 1134.63674337503, 1807.0780641282, -49858.2386071314, 0.000278261440051671, ]
  - [27900, -48331.0531379986, 1674.16839711148, -46656.8847408871, 1110.51447876075, 53.166, 53.166, 53.166, 150280.267978296, -1132.86507161031, -627.594193039548, -1121.00276449278, -1649.9982572986, -49872.1695344545, 0.000295512986144304, ]
  - [28000, -48319.5151448239, 1633.1354148284, -46686.3797299955, 1083.29635601353, 53.166, 53.166, 53.166, 150280.267978296, -1389.01878258687, -1417.65799895039, -1385.5950890738, -1363.80325973641, -49902.3442368165, 0.00031358185373696, ]
  - [28100, -48333.872563549, 1626.31080694731, -46707.5617566017, 1078.76943633395, 53.166, 53.166, 53.166, 150280.267978296, -2074.21441663416, -2124.18914577641, -1739.69816030934, -2358.75594381673, -49906.0969516213, 0.000332494702394641, ]
  - [28200, -48312.2535908187, 1624.18225829773, -46688.071332521, 1077.3575209626, 53.166, 53.166, 53.166, 150280.267978296, 70.2971000807337, -83.674510719526, 18.260356261526, 276.305454700201, -49901.2445791326, 0.000352278644842627, ]
  - [28300, -48318.2813351789, 1649.97147042584, -46668.3098647531, 1094.46409967566, 53.166, 53.166, 53.166, 150280.267978296, -460.521556929825, -260.318025822488, 12.4499138536585, -1133.69655882065, -49898.8261932017, 0.000372961245502164, ]
  - [28400, -48322.8310384683, 1645.69356151436, -46677.1374769539, 1091.62646411091, 53.166, 53.166, 53.166, 150280.267978296, -908.762391448024, -1340.58722336088, -787.650621891854, -598.049329091343, -49916.7035234482, 0.000394570518904788, ]
  - [28500, -48327.8362982555, 1653.0111126538, -46674.8251856017, 1096.48036441356, 53.166, 53.166, 53.166, 150280.267978296, -1328.84468573012, -930.991288746166, -1135.01143031459, -1920.53133812959, -49881.8724174318, 0.000417134927987054, ]
  - [28600, -48319.9621562835, 1640.17297342185, -46679.7891828616, 1087.96453080804, 53.166, 53.166, 53.166, 150280.267978296, -702.937672372281, -260.845125416649, -1354.59394518207, -493.373946518128, -49891.146189728, 0.000440683382267422, ]
  - [28700, -48322.6517611002, 1652.82783167571, -46669.8239294245, 1096.35878991711, 53.166, 53.166, 53.166, 150280.267978296, -593.685963579734, 411.716628937997, -1412.1890588479, -780.585460829292, -49884.3303864898, 0.000465245235907057, ]
  - [28800, -48314.8276573557, 1659.96629939685, -46654.8613579589, 1101.09390006145, 53.166, 53.166, 53.166, 150280.267978296, -128.842912528603, -176.865209933924, 145.851959196822, -355.515486848704, -49884.0692349086, 0.000490850285656287, ]
  - [28900, -48311.1537464051, 1627.55334846648, -46683.6003979386, 1079.5936427578, 53.166, 53.166, 53.166, 150280.267978296, 296.241693188472, 13.1374254254166, 193.841359901615, 681.746294238388, -49885.3401302781, 0.000517528768688429, ]
  - [29000, -48307.5024386828, 1642.18402624888, -46665.3184124339, 1089.29850849261, 53.166, 53.166, 53.166, 150280.267978296, 94.7088408081141, 574.97360933888, 585.5933513592, -876.440438273743, -49915.0966384619, 0.00054531136032273, ]
  - [29100, -48302.8264607424, 1662.22142130603, -46640.6050394363, 1102.58977439275, 53.166, 53.166, 53.166, 150280.267978296, 185.175830047533, 159.474236954961, 364.377092884749, 31.6761603028852, -49918.6115780328, 0.000574229171638096, ]
  - [29200, -48320.1705482511, 1652.05509135978, -46668.1154568914, 1095.84621345787, 53.166, 53.166, 53.166, 150280.267978296, -1042.48021575154, -670.456163839226, -826.023485619351, -1630.96099779605, -49931.3582530043, 0.000604313746979337, ]
  - [29300, -48321.2268802189, 1648.12437437069, -46673.1025058482, 1093.23887829623, 53.166, 53.166, 53.166, 150280.267978296, -1074.88263824261, -645.578925558072, -1545.01738731166, -1034.0516018581, -49933.9306592448, 0.000635597061357593, ]
  - [29400, -48318.7395258526, 1667.54866309712, -46651.1908627554, 1106.12345663826, 53.166, 53.166, 53.166, 150280.267978296, -664.690792596396, -141.063310360242, -722.024398131588, -1130.98466929736, -49953.848957158, 0.000668111517746635, ]
  - [29500, -48304.5988776245, 1629.99464771131, -46674.6042299132, 1081.21301280626, 53.166, 53.166, 53.166, 150280.267978296, 138.923453972916, 586.071331606545, 390.936443436526, -560.237413124322, -49959.4853736557, 0.000701889944276683, ]
  - [29600, -48313.3738031577, 1687.79436753109, -46625.5794356266, 1119.5528989485, 53.166, 53.166, 53.166, 150280.267978296, -187.426453065159, -403.75188499144, -497.754339838698, 339.226865634669, -49960.8200838319, 0.000736965591327429, ]
  - [29700, -48290.3964498243, 1662.92059979264, -46627.4758500317, 1103.05355559538, 53.166, 53.166, 53.166, 150280.267978296, 2946.35678256347, 3920.47286963907, 2516.21312461049, 2402.38435344085, -49940.5020913563, 0.000773372128521878, ]
  - [29800, -48302.1917644955, 1670.1152021586, -46632.0765623369, 1107.82590114324, 53.166, 53.166, 53.166, 150280.267978296, 811.916554103417, 1424.18169856834, 297.404913363071, 714.163050378841, -49934.2586840236, 0.00081114364162266, ]
  - [29900, -48321.2766130852, 1642.27154583326, -46679.0050672519, 1089.35656224981, 53.166, 53.166, 53.166, 150280.267978296, -773.636663567592, -1123.88501906319, -793.650817565375, -403.37415407421, -49940.4745754793, 0.000850314629332433, ]
  - [30000, -48314.1379995427, 1656.77729267602, -46657.3607068667, 1098.97855841334, 53.166, 53.166, 53.166, 150280.267978296, -129.541525123191, -341.664076138236, 175.100688668811, -222.061187900148, -49939.6541600114, 0.000890920000000001, ]
  - [30100, -48313.8457841876, 1673.78982842678, -46640.0559557609, 1110.26336542813, 53.166, 53.166, 53.166, 150280.267978296, -357.808615544791, -638.545240046552, -73.0793163038927, -361.801290283927, -49943.2348233713, 0.000932995068233718, ]
  - [30200, -48316.2417346978, 1668.07421196859, -46648.1675227292, 1106.4720653159, 53.166, 53.166, 53.166, 150280.267978296, -49.9481854804338, 320.368820878632, -760.768859683055, 290.555482363126, -49932.0754735999, 0.000976575551423828, ]
  - [30300, -48308.563040668, 1671.43628973062, -46637.1267509374, 1108.70220897402, 53.166, 53.166, 53.166, 150280.267978296, 508.503169227775, 573.27866526149, 77.8077157658509, 874.423126655983, -49910.2208176612, 0.00102169756617526, ]
  - [30400, -48318.8212152833, 1673.22387622732, -46645.597339056, 1109.88795629194, 53.166, 53.166, 53.166, 150280.267978296, -323.398927702627, -316.250735474029, -500.070667827533, -153.875379806319, -49873.3564545582, 0.00106839762465251, ]
  - [30500, -48313.0166501082, 1667.08217027118, -46645.934479837, 1105.81402119655, 53.166, 53.166, 53.166, 150280.267978296, -322.883824211127, 329.359533779883, -1359.13956203465, 61.1285556213883, -49901.4006777345, 0.00111671263083812, ]
  - [30600, -48305.7484087767, 1659.6412053298, -46646.1072034469, 1100.87825767503, 53.166, 53.166, 53.166, 150280.267978296, 391.063052843988, 280.229573269777, 949.674822810713, -56.7152375485228, -49925.5365195702, 0.00116667987670637, ]
  - [30700, -48293.5211154521, 1661.10853459189, -46632.4125808602, 1101.85157098895, 53.166, 53.166, 53.166, 150280.267978296, 1589.24618984387, 1782.07781320645, 1797.03286550509, 1188.62789082009, -49942.3775376844, 0.00121833703831365, ]
  - [30800, -48302.8306754183, 1673.99460387105, -46628.8360715472, 1110.39919769933, 53.166, 53.166, 53.166, 150280.267978296, 964.814327987031, 742.786875620602, 1057.29507842716, 1094.36102991333, -49930.5785659025, 0.00127172217180712, ]
  - [30900, -48303.7019413447, 1672.94878275425, -46630.7531585905, 1109.70548045177, 53.166, 53.166, 53.166, 150280.267978296, 559.807876352092, 811.705714526752, 395.915953632663, 471.801960896858, -49938.389828724, 0.00132687370935312, ]
  - [31000, -48311.343417196, 1662.94344994359, -46648.3999672524, 1103.06871262708, 53.166, 53.166, 53.166, 150280.267978296, -46.5296057715887, -419.370256943319, -34.3321667963508, 314.113606424906, -49907.1457588812, 0.00138383045498687, ]
  - [31100, -48313.137592834, 1656.77995264131, -46656.3576401927, 1098.98032282962, 53.166, 53.166, 53.166, 150280.267978296, -194.768364200682, 156.799784381623, -847.807340418856, 106.702463435193, -49900.1712554749, 0.00144263158038501, ]
  - [31200, -48319.8797216655, 1662.90790066308, -46656.9718210024, 1103.04513197009, 53.166, 53.166, 53.166, 150280.267978296, -974.373193622008, -738.95460110673, -768.14818804733, -1416.01679171197, -49881.6734454728, 0.00150331662056234, ]
  - [31300, -48318.9550789559, 1645.14442383383, -46673.8106551221, 1091.26220843262, 53.166, 53.166, 53.166, 150280.267978296, -1729.21890943934, -1264.98439384043, -1344.66968133574, -2578.00265314184, -49857.6305494079, 0.00156592546949443, ]
  - [31400, -48314.9188947582, 1661.82094588501, -46653.0979488732, 1102.32412981709, 53.166, 53.166, 53.166, 150280.267978296, -204.873341480165, -1029.56319820068, 157.64026548627, 257.30290827392, -49823.2915787796, 0.00163049837566735, ]
  - [31500, -48314.0537374571, 1660.91192818371, -46653.1418092734, 1101.72115742765, 53.166, 53.166, 53.166, 150280.267978296, -316.763612406306, 78.0903013136552, -244.176882805241, -784.204255727338, -49824.7301628771, 0.00169707593755625, ]
  - [31600, -48307.5173119891, 1654.73669897071, -46652.7806130184, 1097.62498558344, 53.166, 53.166, 53.166, 150280.267978296, 630.937508800434, 854.662236485587, 24.785095311973, 1013.36519460374, -49832.5179527373, 0.00176569909903396, ]
  - [31700, -48316.5572226586, 1675.39829660623, -46641.1589260524, 1111.33029943846, 53.166, 53.166, 53.166, 150280.267978296, -400.64814162221, -38.0923768431455, -739.292626499105, -424.55942152438, -49847.574880837, 0.0018364091447113, ]
  - [31800, -48312.1383389618, 1637.59983570395, -46674.5385032579, 1086.25770926218, 53.166, 53.166, 53.166, 150280.267978296, -425.055759026051, -89.6567327640623, -67.9434651244638, -1117.56707918963, -49854.2844986218, 0.00190924769521034, ]
  - [31900, -48323.1847713977, 1661.75224040834, -46661.4325309893, 1102.27855589111, 53.166, 53.166, 53.166, 150280.267978296, -1074.2491601721, -1073.44919864026, -823.593988329607, -1325.70429354642, -49801.3506066856, 0.00198425670237219, ]
  - [32000, -48310.2466058641, 1637.37549120695, -46672.8711146571, 1086.10889638734, 53.166, 53.166, 53.166, 150280.267978296, -444.251100714883, 139.062224057527, -1097.449598498, -374.365927704167, -49797.5775711551, 0.00206147844440064, ]
  - [32100, -48331.6685677446, 1655.97858199427, -46675.6899857503, 1098.44875521197, 53.166, 53.166, 53.166, 150280.267978296, -1917.39551334304, -1559.10336497596, -1766.72959914528, -2426.3535759079, -49808.0879683874, 0.00214095552094305, ]
[...]
  - [232500, -48307.5408823572, 1635.91701670038, -46671.6238656568, 1085.14145663681, 53.166, 53.166, 53.166, 150280.267978296, -253.288012401321, -573.54098080884, -47.1788800188157, -139.144176376312, -49928.0346331576, 0.000231150959815978, ]
  - [232600, -48298.1873984816, 1637.62242160704, -46660.5649768745, 1086.27269101219, 53.166, 53.166, 53.166, 150280.267978296, 949.078369060002, 595.495715824822, 1098.52003858662, 1153.21935276857, -49927.5998551511, 0.000216911211583102, ]
  - [232700, -48334.729231274, 1636.74282974488, -46697.9864015291, 1085.68923745996, 53.166, 53.166, 53.166, 150280.267978296, -2226.51688690137, -2895.29037594483, -2046.80267839779, -1737.45760636149, -49865.2956056208, 0.000203362326959055, ]
  - [232800, -48331.3402807241, 1644.73201940149, -46686.6082613226, 1090.98865106886, 53.166, 53.166, 53.166, 150280.267978296, -1548.26718687358, -1969.62866727538, -2037.26377035799, -637.909122987358, -49848.5845017816, 0.000190480389068545, ]
  - [232900, -48307.5207810874, 1648.29573277502, -46659.2250483124, 1093.35254427475, 53.166, 53.166, 53.166, 150280.267978296, 646.12832256741, -93.7401205279195, 633.573070905484, 1398.55201732467, -49869.6453729705, 0.000178241940897418, ]
  - [233000, -48325.6841432663, 1659.86436804234, -46665.819775224, 1101.02628664501, 53.166, 53.166, 53.166, 150280.267978296, -1102.55500232848, -1812.32638153502, -706.481599797592, -788.857025652848, -49887.4149505871, 0.000166623985720989, ]
  - [233100, -48327.0998238649, 1653.49604353417, -46673.6037803308, 1096.80203024167, 53.166, 53.166, 53.166, 150280.267978296, -1253.68249990482, -1231.61971626448, -1190.28037768837, -1339.1474057616, -49887.899029926, 0.000155603987394581, ]
  - [233200, -48317.8771136684, 1630.03728226388, -46687.8398314045, 1081.24129328749, 53.166, 53.166, 53.166, 150280.267978296, -560.369402932986, -799.770907785865, -115.570246538439, -765.767054474651, -49884.7911388303, 0.000145159870504403, ]
  - [233300, -48337.7401208777, 1662.01233635674, -46675.727784521, 1102.45108352756, 53.166, 53.166, 53.166, 150280.267978296, -2464.23468374607, -2439.83685267847, -2012.21643260497, -2940.65076595478, -49899.5392257635, 0.000135270020376871, ]
  - [233400, -48318.0097639276, 1667.43941318057, -46650.5703507471, 1106.05098865096, 53.166, 53.166, 53.166, 150280.267978296, -378.929507335345, -337.691026456743, -478.771494964464, -320.32600058483, -49923.0360258268, 0.000125913282944476, ]
  - [233500, -48308.9460356347, 1645.35291813304, -46663.5931175017, 1091.40050750601, 53.166, 53.166, 53.166, 150280.267978296, 661.150522592729, 1030.11587258942, 177.137282429073, 776.198412759691, -49910.3999047031, 0.000117068964466275, ]
  - [233600, -48319.3726883129, 1675.85386480264, -46643.5188235103, 1111.63248832164, 53.166, 53.166, 53.166, 150280.267978296, -441.362653354803, -1014.69428190607, -562.742682312969, 253.34900415463, -49922.8748515244, 0.000108716831101108, ]
  - [233700, -48290.8310357467, 1647.44805041249, -46643.3829853342, 1092.79025702897, 53.166, 53.166, 53.166, 150280.267978296, 2045.09240090499, 1564.03896293641, 3238.41561952711, 1332.82262025144, -49901.371972945, 0.000100837108331576, ]
  - [233800, -48319.758702666, 1662.32751527981, -46657.4311873862, 1102.66014897048, 53.166, 53.166, 53.166, 150280.267978296, -1017.26942770656, -1027.82755847457, -1368.87512264264, -655.105602002482, -49911.0883785308, 9.34104802368709e-05, ]
  - [233900, -48312.3930260909, 1647.72496743412, -46664.6680586568, 1092.97394247093, 53.166, 53.166, 53.166, 150280.267978296, -891.497629479403, -1538.91211447135, -201.008848969564, -934.571924997299, -49941.4995278416, 8.64180886124633e-05, ]
  - [234000, -48297.9793274666, 1658.06677163962, -46639.912555827, 1099.83389952575, 53.166, 53.166, 53.166, 150280.267978296, 340.557581407243, 282.379511285356, 840.434767653047, -101.141534716674, -49929.8136658885, 7.98415319347196e-05, ]
  - [234100, -48317.942523486, 1658.42026505763, -46659.5222584284, 1100.06837985612, 53.166, 53.166, 53.166, 150280.267978296, -582.035251028567, -642.271787822503, -359.011600477372, -744.822364785824, -49935.2733193485, 7.36628641684439e-05, ]
  - [234200, -48315.8148609802, 1689.15747502361, -46626.6573859566, 1120.45707956089, 53.166, 53.166, 53.166, 150280.267978296, -537.412999738945, -993.109269056629, 4.265736464092, -623.395466624298, -49944.9536839265, 6.78645934153684e-05, ]
  - [234300, -48291.7804443003, 1659.13828489128, -46632.642159409, 1100.54465895843, 53.166, 53.166, 53.166, 150280.267978296, 2071.88406554495, 2218.04624113409, 2043.61599362332, 1953.98996187744, -49977.1045779213, 6.24296804015905e-05, ]
  - [234400, -48309.6009380991, 1651.62648263793, -46657.9744554612, 1095.56190741544, 53.166, 53.166, 53.166, 150280.267978296, -69.4845582651391, -501.014496818935, 516.192160388566, -223.631338365053, -49993.3879800371, 5.73415368019447e-05, ]
  - [234500, -48326.6851504098, 1653.9674349303, -46672.7177154795, 1097.11471501787, 53.166, 53.166, 53.166, 150280.267978296, -1424.84373931514, -926.988385090446, -1898.56815220756, -1448.97468064741, -49928.3035029309, 5.25840233992875e-05, ]
  - [234600, -48314.8274527447, 1661.21250448213, -46653.6149482625, 1101.92053661312, 53.166, 53.166, 53.166, 150280.267978296, -27.9602911960559, -732.282969355572, 1442.26321684034, -793.861121072939, -49930.8210643444, 4.81414480766631e-05, ]
  - [234700, -48308.3540429664, 1646.43783990521, -46661.9162030612, 1092.12016111935, 53.166, 53.166, 53.166, 150280.267978296, 620.063611942602, 831.361483862698, 451.881765913769, 576.947586051339, -49965.7354080806, 4.39985636403036e-05, ]
  - [234800, -48327.5984219828, 1673.20924795295, -46654.3891740298, 1109.87825302045, 53.166, 53.166, 53.166, 150280.267978296, -1269.40129633292, -2070.75002242157, -940.468999939323, -796.984866637869, -49987.4563508389, 4.01405654714093e-05, ]
  - [234900, -48298.8324395556, 1663.74204352349, -46635.0903960321, 1103.5984381521, 53.166, 53.166, 53.166, 150280.267978296, 1369.99888231144, 727.204894599689, 1291.20409912217, 2091.58765321246, -49991.3786720792, 3.65530890046418e-05, ]
  - [235000, -48303.1449357146, 1672.99034186323, -46630.1545938514, 1109.73304756648, 53.166, 53.166, 53.166, 150280.267978296, 1111.45113570039, 1109.62085283147, 925.550541073536, 1299.18201319616, -49979.0143942269, 3.32222070312498e-05, ]
  - [235100, -48326.3252435459, 1670.9743192819, -46655.350924264, 1108.39577332935, 53.166, 53.166, 53.166, 150280.267978296, -1901.24623512763, -2086.66417981393, -2198.22471764818, -1418.84980792077, -49986.4670259658, 3.01344268247407e-05, ]
  - [235200, -48316.9432418208, 1672.46140546459, -46644.4818363562, 1109.382191864, 53.166, 53.166, 53.166, 150280.267978296, 293.270227104459, -83.5501768370553, 441.78879899901, 521.572059151424, -49967.7968029342, 2.72766870869938e-05, ]
  - [235300, -48302.7289727205, 1656.94564928487, -46645.7833234356, 1099.09023323175, 53.166, 53.166, 53.166, 150280.267978296, 662.047628702278, 544.546107002134, 569.630302898095, 871.966476206606, -49971.5658720539, 2.46363547127045e-05, ]
  - [235400, -48315.1132250051, 1647.03910989086, -46668.0741151142, 1092.518997357, 53.166, 53.166, 53.166, 150280.267978296, -275.227706464121, -1133.07928952895, -399.570857953614, 706.967028090193, -49979.4549298468, 2.22012213700348e-05, ]
  - [235500, -48308.5469988651, 1671.99873752399, -46636.5482613411, 1109.07529355689, 53.166, 53.166, 53.166, 150280.267978296, 359.325331837606, -98.911551211051, 181.823943511803, 995.063603212073, -49998.7239868773, 1.99594998953343e-05, ]
  - [235600, -48300.1448166592, 1669.27675946332, -46630.8680571959, 1107.26974278168, 53.166, 53.166, 53.166, 150280.267978296, 1180.87721479742, 1213.98267332921, 724.499055608503, 1604.14991545455, -49998.1138834791, 1.78998204997852e-05, ]
  - [235700, -48317.4911308178, 1665.88053200216, -46651.6105988157, 1105.01694684114, 53.166, 53.166, 53.166, 150280.267978296, 324.731003599753, 483.205312734236, 410.989674369337, 79.9980236956909, -50021.1331577778, 1.6011226785813e-05, ]
  - [235800, -48327.3390862749, 1663.04435638348, -46664.2947298914, 1103.13564619403, 53.166, 53.166, 53.166, 150280.267978296, -1769.81136960041, -2158.84924845559, -1335.26251931045, -1815.32234103519, -50031.5547151625, 1.42831715710918e-05, ]
  - [235900, -48329.3699871116, 1649.42593308912, -46679.9440540225, 1094.10223218838, 53.166, 53.166, 53.166, 150280.267978296, -2052.83570399963, -2102.68436461278, -1740.74386776032, -2315.07887962579, -50028.3928687125, 1.27055125179639e-05, ]
  - [236000, -48310.4839882408, 1650.63643077945, -46659.8475574613, 1094.90518320212, 53.166, 53.166, 53.166, 150280.267978296, -298.902736908688, 44.0996600002157, -933.112284056444, -7.69558666982938, -50018.7112766745, 1.12685075660799e-05, ]
  - [236100, -48320.752525442, 1660.72551031468, -46660.0270151273, 1101.59750215915, 53.166, 53.166, 53.166, 150280.267978296, -960.298725170133, -273.574144504674, -1538.38001508835, -1068.94201591737, -50039.4376486614, 9.96281016605479e-06, ]
  - [236200, -48305.5491865486, 1655.15862796151, -46650.3905585871, 1097.90486080633, 53.166, 53.166, 53.166, 150280.267978296, 108.789855812683, -186.473801595602, 689.059532435721, -176.216163402068, -50021.8058659552, 8.77946431192305e-06, ]
  - [236300, -48304.1797494806, 1662.68018951162, -46641.499559969, 1102.89408591576, 53.166, 53.166, 53.166, 150280.267978296, 1099.86566309524, 1723.80973863187, 785.308297314214, 790.478953339635, -49992.3737637689, 7.70989937016554e-06, ]
  - [236400, -48301.8721876855, 1644.07323825225, -46657.7989494332, 1090.55166635105, 53.166, 53.166, 53.166, 150280.267978296, 533.308933656873, 772.603100575729, 273.24789845998, 554.075801934913, -50008.3355907961, 6.74592470306788e-06, ]
  - [236500, -48301.6306089484, 1647.96033842199, -46653.6702705264, 1093.13006947127, 53.166, 53.166, 53.166, 150280.267978296, 1090.79334690155, 925.614519572825, 1464.73894433213, 882.026576799697, -49982.8308037811, 5.87972408415909e-06, ]
  - [236600, -48313.6895472584, 1674.01089954185, -46639.6786477165, 1110.41000699331, 53.166, 53.166, 53.166, 150280.267978296, -5.68815115768479, 249.227939420601, -634.235094288074, 367.942701394414, -49981.1530649299, 5.10384990346715e-06, ]
  - [236700, -48309.4150116602, 1653.94161193353, -46655.4733997267, 1097.09758602902, 53.166, 53.166, 53.166, 150280.267978296, -303.203586075569, -645.441066795179, 851.761210018286, -1115.93090144981, -50015.998315982, 4.41121716031669e-06, ]
  - [236800, -48323.4153485019, 1635.86037662712, -46687.5549718748, 1085.10388597095, 53.166, 53.166, 53.166, 150280.267978296, -1414.47187628293, -2344.75203269427, -423.021433297496, -1475.64216285704, -50016.108755213, 3.79509724138197e-06, ]
  - [236900, -48325.5476059871, 1651.36615300659, -46674.1814529806, 1095.38922477172, 53.166, 53.166, 53.166, 150280.267978296, -2426.95951451341, -2744.4813851354, -2050.79982840699, -2485.59732999784, -50011.472815526, 3.24911148169665e-06, ]
  - [237000, -48326.7130252413, 1672.01853794305, -46654.6944872983, 1109.08842763115, 53.166, 53.166, 53.166, 150280.267978296, -1993.61322080444, -2536.36666359651, -2010.0390531073, -1434.43394570949, -49993.196898873, 2.76722450630996e-06, ]
  - [237100, -48327.8925375694, 1652.62347573065, -46675.2690618388, 1096.2232359094, 53.166, 53.166, 53.166, 150280.267978296, -1354.61330643674, -1654.86341557274, -958.858056691749, -1450.11844704572, -49970.1880257337, 2.34373735026696e-06, ]
  - [237200, -48307.9004843054, 1659.51751392849, -46648.3829703769, 1100.79621031809, 53.166, 53.166, 53.166, 150280.267978296, 938.868906352998, 1194.6592280829, 741.280340465766, 880.667150510332, -50018.5141895427, 1.97328035457889e-06, ]
  - [237300, -48308.842894363, 1649.78693899117, -46659.0559553718, 1094.34169572254, 53.166, 53.166, 53.166, 150280.267978296, -241.338211885533, -133.453707930449, 54.0461002602004, -644.607027986343, -50030.4003005174, 1.65080583583743e-06, ]
  - [237400, -48310.37552425, 1637.25083990216, -46673.1246843478, 1086.0262123043, 53.166, 53.166, 53.166, 150280.267978296, 417.336662794154, -146.758784561766, 78.609004277541, 1320.15976866669, -49997.7722216999, 1.37158052711493e-06, ]
  - [237500, -48309.2332375667, 1646.85199467814, -46662.3812428886, 1092.39487952437, 53.166, 53.166, 53.166, 150280.267978296, -537.413163592407, -197.234951072626, -911.797180678287, -503.207359026314, -50043.9741180902, 1.13117778778074e-06, ]
  - [237600, -48328.4598181174, 1684.25762634568, -46644.2021917717, 1117.20689701655, 53.166, 53.166, 53.166, 150280.267978296, -1211.47246170032, -390.426696233424, -1883.37636143582, -1360.61432743172, -50065.3276932, 9.25469579851505e-07, ]
  - [237700, -48324.502325935, 1657.61787749232, -46666.8844484426, 1099.53613769315, 53.166, 53.166, 53.166, 150280.267978296, -1704.23067044174, -1468.96160017202, -1983.22531995694, -1660.50509119626, -50102.2359013853, 7.50618208481688e-07, ]
  - [237800, -48313.8312110632, 1633.80775987526, -46680.0234511879, 1083.7423379772, 53.166, 53.166, 53.166, 150280.267978296, -1053.12201381186, -2138.40318498292, -1172.66497666995, 151.702120217302, -50088.1142330693, 6.03067824188189e-07, ]
  - [237900, -48304.9729194847, 1642.69358946597, -46662.2793300187, 1089.63651351731, 53.166, 53.166, 53.166, 150280.267978296, 703.580844210065, -219.926575607682, 819.36935839726, 1511.29974984063, -50044.7311203603, 4.79535684391034e-07, ]
  - [238000, -48310.0556153799, 1637.85693417251, -46672.1986812074, 1086.42824860118, 53.166, 53.166, 53.166, 150280.267978296, -709.881399927706, -304.731237146375, -1406.23871550475, -418.674247131989, -50015.4628595938, 3.77003171839991e-07, ]
  - [238100, -48309.2923371751, 1664.27328107704, -46645.0190560981, 1103.95082026366, 53.166, 53.166, 53.166, 150280.267978296, 440.745008401948, 288.21618733709, -166.606281191114, 1200.62511905987, -49992.2631696025, 2.92706567484834e-07, ]
  - [238200, -48316.3741435167, 1648.97058416878, -46667.4035593479, 1093.80018875608, 53.166, 53.166, 53.166, 150280.267978296, -612.08342651119, -120.695870595683, -668.258769663358, -1047.29563927453, -50015.0886542319, 2.24127575334843e-07, ]
  - [238300, -48304.2765424605, 1651.22400553165, -46653.0525369289, 1095.29493507582, 53.166, 53.166, 53.166, 150280.267978296, 100.984380520267, -260.61178482421, 606.807449228251, -43.2425228432389, -49983.4579656035, 1.68983596840973e-07, ]
  - [238400, -48299.5289981675, 1645.82318422635, -46653.7058139412, 1091.71244584291, 53.166, 53.166, 53.166, 150280.267978296, 1146.16146142296, 1919.04140664667, 484.981620977652, 1034.46135664453, -49968.977315394, 1.25217752321901e-07, ]
  - [238500, -48298.279372264, 1676.6691796708, -46621.6101925932, 1112.1733054625, 53.166, 53.166, 53.166, 150280.267978296, 1313.81048040849, 1752.8786709069, 748.900664092037, 1439.65210622653, -49954.9212985267, 9.09886469429854e-08, ]
  - [238600, -48319.1975576173, 1659.5212672677, -46659.6762903496, 1100.79869999449, 53.166, 53.166, 53.166, 150280.267978296, -946.980309872412, -900.598599390737, -314.059430170335, -1626.28290005616, -49961.3003403939, 6.46598787448784e-08, ]
  - [238700, -48303.459479579, 1647.78930117135, -46655.6701784077, 1093.0166165214, 53.166, 53.166, 53.166, 150280.267978296, 588.190752320699, 458.387279106149, 348.193792121291, 957.991185734656, -49976.4269703925, 4.47892862063161e-08, ]
  - [238800, -48330.303076399, 1632.53180066362, -46697.7712757354, 1082.89596482783, 53.166, 53.166, 53.166, 150280.267978296, -1792.01257327142, -984.078837757198, -1719.33713376866, -2672.62174828839, -49969.654344669, 3.01179328132691e-08, ]
  - [238900, -48320.7999713349, 1650.54128474576, -46670.2586865892, 1094.84207064534, 53.166, 53.166, 53.166, 150280.267978296, -746.954558980373, -520.377752581676, -1447.20718361057, -273.27874074887, -49988.6792786712, 1.95588260943479e-08, ]
  - [239000, -48300.5542796503, 1655.52083300472, -46645.0334466455, 1098.14511975845, 53.166, 53.166, 53.166, 150280.267978296, 1215.53965733829, 1234.42611311986, 447.814894524387, 1964.37796437062, -49956.6401388219, 1.21853685699994e-08, ]
  - [239100, -48323.769489013, 1663.24468876064, -46660.5248002523, 1103.26853127643, 53.166, 53.166, 53.166, 150280.267978296, -1305.95372113492, -1738.47553548305, -949.417148103779, -1229.96847981794, -49983.269001172, 7.21953805066191e-09, ]
  - [239200, -48299.7827155193, 1662.30262625832, -46637.480089261, 1102.64363950896, 53.166, 53.166, 53.166, 150280.267978296, 551.024595859188, -147.671473517108, 810.570548201274, 990.174712893393, -50007.8008370562, 4.01979470665194e-09, ]
  - [239300, -48302.7032325307, 1650.11031176143, -46652.5929207692, 1094.55619633314, 53.166, 53.166, 53.166, 150280.267978296, 408.876309861341, 386.040662782441, 592.771241339855, 247.817025461727, -50007.447581985, 2.06871232013228e-09, ]
  - [239400, -48299.7231566893, 1664.90525672123, -46634.8178999681, 1104.37002427223, 53.166, 53.166, 53.166, 150280.267978296, 1089.73019921507, 1108.17598567708, 427.823537859382, 1733.19107410875, -49975.1465809392, 9.60331117066315e-10, ]
  - [239500, -48307.0488540775, 1673.68252350089, -46633.3663305766, 1110.19218759796, 53.166, 53.166, 53.166, 150280.267978296, 123.5423042838, 647.390699666453, 62.536792270827, -339.300579085886, -49989.2126485573, 3.87229564589803e-10, ]
  - [239600, -48313.0394369752, 1650.64755409364, -46662.3918828816, 1094.91256155276, 53.166, 53.166, 53.166, 150280.267978296, -196.65660860107, 566.640238303147, -850.363556281663, -306.246507824693, -49979.456049278, 1.27312506734493e-10, ]
  - [239700, -48319.7478017411, 1646.68975836829, -46673.0580433729, 1092.28726444133, 53.166, 53.166, 53.166, 150280.267978296, -1466.3728524564, -1145.05954699512, -1461.31127693808, -1792.747733436, -49953.8192411102, 3.03129989146573e-11, ]
  - [239800, -48319.9017713228, 1678.53605852772, -46641.3657127951, 1113.41164923024, 53.166, 53.166, 53.166, 150280.267978296, -1318.06380814142, -1026.65140266126, -2306.02207149119, -621.517950271824, -49940.1795209749, 4.00518903939475e-12, ]
  - [239900, -48319.7056329892, 1659.13984174259, -46660.5657912467, 1100.54569165378, 53.166, 53.166, 53.166, 150280.267978296, -1198.17489722568, -1242.71033091045, -1014.02287441904, -1337.79148634756, -49931.104416391, 1.25580539685001e-13, ]
  - [240000, -48303.0949123455, 1672.36433049766, -46630.7305818478, 1109.31779980136, 53.166, 53.166, 53.166, 150280.267978296, 826.958761975738, 170.570781589681, 996.013140509826, 1314.29236382771, -49915.2811863615, 0, ]
...
Loop time of 133.923 on 64 procs for 100000 steps with 11664 atoms

Performance: 64.515 ns/day, 0.372 hours/ns, 746.697 timesteps/s, 8.709 Matom-step/s
70.0% CPU use with 64 MPI tasks x 1 OpenMP threads

MPI task timing breakdown:
Section |  min time  |  avg time  |  max time  |%varavg| %total
---------------------------------------------------------------
Pair    | 64.944     | 66.899     | 68.086     |   8.3 | 49.95
Neigh   | 0.32091    | 0.32796    | 0.34277    |   0.7 |  0.24
Comm    | 20.29      | 21.402     | 23.037     |  14.4 | 15.98
Output  | 0.36215    | 0.4065     | 0.4077     |   0.9 |  0.30
Modify  | 14.082     | 14.978     | 43.322     |  92.5 | 11.18
Other   |            | 29.91      |            |       | 22.33

Nlocal:         182.25 ave         197 max         171 min
Histogram: 1 6 9 14 9 15 5 2 2 1
Nghost:        1275.06 ave        1287 max        1261 min
Histogram: 1 3 2 7 13 9 16 8 4 1
Neighs:        7168.45 ave        7820 max        6608 min
Histogram: 1 2 11 14 10 13 4 6 2 1

Total # of neighbors = 458781
Ave neighs/atom = 39.333076
Neighbor list builds = 872
Dangerous builds = 0
#------------------------------------------------------------------------------#
Total wall time: 0:05:02
