LAMMPS (2 Aug 2023)
OMP_NUM_THREADS environment is not set. Defaulting to 1 thread. (src/comm.cpp:98)
  using 1 OpenMP thread(s) per MPI task
#--------------------------- Simulation variables -----------------------------#
# Initalizes the random number generator.
variable RND equal round(random(0,999,${RANDOM}))
variable RND equal round(random(0,999,1))

# Simulation control parameters.
variable t_eq equal 20000 # Equilibration time.
variable t equal 100000 # Switching time.

#---------------------------- Atomic setup ------------------------------------#
units            metal
# Create atoms.
lattice          bcc ${a}
lattice          bcc 2.9686055555555555
Lattice spacing in x,y,z = 2.9686056 2.9686056 2.9686056
region           sim_box block 0 18 0 18 0 18
create_box       1 sim_box
Created orthogonal box = (0 0 0) to (53.4349 53.4349 53.4349)
  4 by 4 by 4 MPI processor grid
create_atoms     1 box
Created 11664 atoms
  using lattice units in orthogonal box = (0 0 0) to (53.4349 53.4349 53.4349)
  create_atoms CPU = 0.001 seconds

# Define interatomic potential.
pair_style       eam
pair_coeff       * * ../Fe.eam
#----------------------------- Run simulation ---------------------------------#
# Initial temperature to accelerate equilibration.
velocity all create ${T} ${RND} mom yes rot yes dist gaussian
velocity all create 1400 ${RND} mom yes rot yes dist gaussian
velocity all create 1400 80 mom yes rot yes dist gaussian

# Integrator, Frenkel-Ladd modifier, and thermostat.
fix fe all nve
fix fti all ti/spring ${k} ${t} ${t_eq} function 2
fix fti all ti/spring 2.522497888235294 ${t} ${t_eq} function 2
fix fti all ti/spring 2.522497888235294 100000 ${t_eq} function 2
fix fti all ti/spring 2.522497888235294 100000 20000 function 2
fix ft all langevin ${T} ${T} 0.1 ${RND} zero yes
fix ft all langevin 1400 ${T} 0.1 ${RND} zero yes
fix ft all langevin 1400 1400 0.1 ${RND} zero yes
fix ft all langevin 1400 1400 0.1 178 zero yes
compute tcom all temp/com
fix_modify ft temp tcom

# Setup thermo output.
variable dE equal pe-f_fti
variable lambda equal f_fti[1]

thermo_style custom step pe ke etotal temp lx ly lz vol press pxx pyy pzz v_dE v_lambda
thermo 100
thermo_modify line yaml
thermo_modify flush yes

# Forward integration.
run ${t_eq}
run 20000

CITE-CITE-CITE-CITE-CITE-CITE-CITE-CITE-CITE-CITE-CITE-CITE-CITE

Your simulation uses code contributions which should be cited:

- ti/spring command: doi:10.1016/j.commatsci.2015.10.050

@article{freitas2016,
  author={Freitas, Rodrigo and Asta, Mark and de Koning, Maurice},
  title={Nonequilibrium Free-Energy Calculation of Solids Using {LAMMPS}},
  journal={Computational Materials Science},
  volume={112},
  pages={333--341},
  year={2016},
  publisher={Elsevier}
}

CITE-CITE-CITE-CITE-CITE-CITE-CITE-CITE-CITE-CITE-CITE-CITE-CITE

Neighbor list info ...
  update: every = 1 steps, delay = 0 steps, check = yes
  max neighbors/atom: 2000, page size: 100000
  master list distance cutoff = 6.409104
  ghost atom cutoff = 6.409104
  binsize = 3.204552, bins = 17 17 17
  1 neighbor lists, perpetual/occasional/extra = 1 0 0
  (1) pair eam, perpetual
      attributes: half, newton on
      pair build: half/bin/atomonly/newton
      stencil: half/bin/3d
      bin: standard
Per MPI rank memory allocation (min/avg/max) = 3.736 | 3.736 | 3.736 Mbytes
---
keywords: ['Step', 'PotEng', 'KinEng', 'TotEng', 'Temp', 'Lx', 'Ly', 'Lz', 'Volume', 'Press', 'Pxx', 'Pyy', 'Pzz', 'v_dE', 'v_lambda', ]
data:
  - [0, -49296.4900702169, 2110.585499589, -47185.9045706279, 1400, 53.4349, 53.4349, 53.4349, 152572.057499711, -149955.858816064, -149796.013936869, -150057.608799578, -150013.953711746, -49296.4900702169, 0, ]
  - [100, -48031.7643852073, 1776.45862071377, -46255.3057644935, 1178.36594133883, 53.4349, 53.4349, 53.4349, 152572.057499711, -21067.2000266416, -22169.8939257802, -20351.6005617845, -20680.1055923599, -48031.7643852073, 0, ]
  - [200, -47906.0378234865, 2002.00688070409, -45904.0309427824, 1327.97729991584, 53.4349, 53.4349, 53.4349, 152572.057499711, -8318.20572906377, -7956.78621529592, -9088.15133885757, -7909.67963303782, -47906.0378234865, 0, ]
  - [300, -47853.6290383251, 2069.56056994646, -45784.0684683786, 1372.78721875482, 53.4349, 53.4349, 53.4349, 152572.057499711, -2498.33711913793, -3712.33855154743, -2403.19685555414, -1379.47595031223, -47853.6290383251, 0, ]
  - [400, -47842.1618906041, 2089.31732586588, -45752.8445647382, 1385.89233024762, 53.4349, 53.4349, 53.4349, 152572.057499711, -2562.88395393852, -2599.6323716762, -2262.91618648066, -2826.1033036587, -47842.1618906041, 0, ]
  - [500, -47809.6471630859, 2078.71244643649, -45730.9347166494, 1378.85786933427, 53.4349, 53.4349, 53.4349, 152572.057499711, 705.854699608416, 677.833289868294, 496.422342780812, 943.308466176141, -47809.6471630859, 0, ]
  - [600, -47811.6476645078, 2133.2646767463, -45678.3829877615, 1415.04362084663, 53.4349, 53.4349, 53.4349, 152572.057499711, 1428.04390904403, 1286.99057138652, 1601.04157585616, 1396.09957988941, -47811.6476645078, 0, ]
  - [700, -47808.0121769484, 2114.87735635339, -45693.134820595, 1402.84688749701, 53.4349, 53.4349, 53.4349, 152572.057499711, 1105.16972465789, 263.013318628505, 647.896774073442, 2404.59908127173, -47808.0121769484, 0, ]
  - [800, -47808.2729157494, 2099.52253152321, -45708.7503842262, 1392.66167833754, 53.4349, 53.4349, 53.4349, 152572.057499711, 642.07668721742, 1291.23052279591, 4.38460835036702, 630.614930505984, -47808.2729157494, 0, ]
  - [900, -47829.0925360866, 2123.05691649221, -45706.0356195944, 1408.27257823381, 53.4349, 53.4349, 53.4349, 152572.057499711, -188.220740229217, -358.939857161106, 151.786325501537, -357.508689028076, -47829.0925360866, 0, ]
  - [1000, -47823.5778237118, 2107.73364634029, -45715.8441773715, 1398.10830001961, 53.4349, 53.4349, 53.4349, 152572.057499711, -952.010318610942, -659.118503526144, -1428.7604607143, -768.151991592375, -47823.5778237118, 0, ]
  - [1100, -47816.2757204178, 2097.60357866665, -45718.6721417511, 1391.38879268581, 53.4349, 53.4349, 53.4349, 152572.057499711, -216.521238987568, 155.072065296599, 277.902771341307, -1082.5385536006, -47816.2757204178, 0, ]
  - [1200, -47802.5506101223, 2115.78365720967, -45686.7669529126, 1403.44805774054, 53.4349, 53.4349, 53.4349, 152572.057499711, 2012.78339143715, 1676.27880722595, 2163.98103509768, 2198.09033198781, -47802.5506101223, 0, ]
  - [1300, -47824.3674059741, 2135.31324281423, -45689.0541631598, 1416.40248192839, 53.4349, 53.4349, 53.4349, 152572.057499711, -84.6078810324805, -78.3311247847221, 58.9230513007139, -234.415569613421, -47824.3674059741, 0, ]
  - [1400, -47808.3700491594, 2082.76473577852, -45725.6053133809, 1381.54584623923, 53.4349, 53.4349, 53.4349, 152572.057499711, 955.440013274007, 1391.23909017587, 763.225296497632, 711.855653148519, -47808.3700491594, 0, ]
  - [1500, -47838.9864211301, 2093.0661406591, -45745.920280471, 1388.37900549083, 53.4349, 53.4349, 53.4349, 152572.057499711, -1682.52102990378, -2275.84725483232, -2297.90096685293, -473.814868026102, -47838.9864211301, 0, ]
  - [1600, -47834.1220889229, 2121.74139122197, -45712.3806977009, 1407.39996000598, 53.4349, 53.4349, 53.4349, 152572.057499711, -633.239218470626, -446.40884949498, 69.3824226592656, -1522.69122857617, -47834.1220889229, 0, ]
  - [1700, -47830.8237915977, 2110.58710256393, -45720.2366890338, 1400.00106329021, 53.4349, 53.4349, 53.4349, 152572.057499711, -970.030388664532, -700.726927177083, 88.871798157731, -2298.23603697424, -47830.8237915977, 0, ]
  - [1800, -47815.9654362407, 2116.29784194468, -45699.667594296, 1403.78912832459, 53.4349, 53.4349, 53.4349, 152572.057499711, 779.257119720502, 179.142306382899, 1210.77645341492, 947.852599363686, -47815.9654362407, 0, ]
  - [1900, -47805.7834298349, 2110.89893821454, -45694.8844916203, 1400.20791106346, 53.4349, 53.4349, 53.4349, 152572.057499711, 1569.56534415776, 1605.5047433888, 1657.19390134533, 1445.99738773916, -47805.7834298349, 0, ]
  - [2000, -47806.23020527, 2116.39460330452, -45689.8356019655, 1403.85331236442, 53.4349, 53.4349, 53.4349, 152572.057499711, 1113.46482891953, 788.52315289307, 1745.91057720498, 805.960756660521, -47806.23020527, 0, ]
  - [2100, -47832.7577853963, 2122.95282779482, -45709.8049576015, 1408.20353380212, 53.4349, 53.4349, 53.4349, 152572.057499711, -1527.18510878703, -1203.1511575209, -1289.43552282989, -2088.96864601031, -47832.7577853963, 0, ]
  - [2200, -47820.0752768438, 2110.08066065911, -45709.9946161847, 1399.66512870387, 53.4349, 53.4349, 53.4349, 152572.057499711, -269.762696932897, 170.201992369692, 406.164686061447, -1385.65476922983, -47820.0752768438, 0, ]
  - [2300, -47839.1440617143, 2118.34350416101, -45720.8005575532, 1405.14606321465, 53.4349, 53.4349, 53.4349, 152572.057499711, -1732.29386764616, -635.206348442604, -2551.30048890519, -2010.37476559068, -47839.1440617143, 0, ]
  - [2400, -47812.8857796899, 2105.25663726574, -45707.6291424241, 1396.46524281816, 53.4349, 53.4349, 53.4349, 152572.057499711, 777.19549263354, 1283.9834633032, 816.940850651171, 230.662163946241, -47812.8857796899, 0, ]
  - [2500, -47836.276012134, 2112.30817126207, -45723.9678408719, 1401.14268781945, 53.4349, 53.4349, 53.4349, 152572.057499711, -1585.39146045358, -2111.42487361136, -22.3097077026413, -2622.43980004676, -47836.276012134, 0, ]
  - [2600, -47830.7394361266, 2093.36949859972, -45737.3699375269, 1388.58022980368, 53.4349, 53.4349, 53.4349, 152572.057499711, -1165.97152584553, -724.070611515242, -1730.99023135525, -1042.8537346661, -47830.7394361266, 0, ]
  - [2700, -47842.4671213024, 2120.66486417135, -45721.8022571311, 1406.6858748049, 53.4349, 53.4349, 53.4349, 152572.057499711, -1739.28917950592, -2127.35661799171, -1248.77774932027, -1841.73317120577, -47842.4671213024, 0, ]
  - [2800, -47830.1547296062, 2127.29338305747, -45702.8613465488, 1411.08272413528, 53.4349, 53.4349, 53.4349, 152572.057499711, -61.9698192641799, -417.034645676202, 328.894563753303, -97.769375869648, -47830.1547296062, 0, ]
  - [2900, -47822.7096382424, 2116.14304418435, -45706.5665940581, 1403.68644740287, 53.4349, 53.4349, 53.4349, 152572.057499711, 48.7042857062836, 17.7489856245937, -344.942963988888, 473.306835483145, -47822.7096382424, 0, ]
  - [3000, -47843.1236894067, 2113.30758701144, -45729.8161023953, 1401.80562331739, 53.4349, 53.4349, 53.4349, 152572.057499711, -2432.77685036937, -1010.89583730175, -2798.77072820941, -3488.66398559696, -47843.1236894067, 0, ]
  - [3100, -47848.1138479466, 2082.66994961726, -45765.4438983294, 1381.48297239413, 53.4349, 53.4349, 53.4349, 152572.057499711, -2625.8730340317, -2199.4148504683, -2189.61120628109, -3488.59304534571, -47848.1138479466, 0, ]
  - [3200, -47824.4103882221, 2108.77494429842, -45715.6354439237, 1398.79901695179, 53.4349, 53.4349, 53.4349, 152572.057499711, -48.4375233997361, 382.892817956093, -251.094150030838, -277.111238124466, -47824.4103882221, 0, ]
  - [3300, -47843.7830899065, 2081.80810719212, -45761.9749827144, 1380.91129245251, 53.4349, 53.4349, 53.4349, 152572.057499711, -1982.95146582726, -1313.95335046492, -3275.65339263438, -1359.24765438248, -47843.7830899065, 0, ]
  - [3400, -47826.2509130052, 2092.86192111103, -45733.3889918942, 1388.24354195838, 53.4349, 53.4349, 53.4349, 152572.057499711, 90.4041483733762, 27.1796377742759, -946.534656659824, 1190.56746400568, -47826.2509130052, 0, ]
  - [3500, -47813.8421214922, 2129.22023444968, -45684.6218870425, 1412.36084906772, 53.4349, 53.4349, 53.4349, 152572.057499711, 1276.43508766338, 2120.36157895684, 433.027939540011, 1275.91574449327, -47813.8421214922, 0, ]
  - [3600, -47822.7061802484, 2129.10962401388, -45693.5965562345, 1412.28747861666, 53.4349, 53.4349, 53.4349, 152572.057499711, 198.605180818825, 90.2953312691367, -213.936769289863, 719.456980477196, -47822.7061802484, 0, ]
  - [3700, -47823.7964698096, 2096.60008647011, -45727.1963833395, 1390.72315318651, 53.4349, 53.4349, 53.4349, 152572.057499711, -608.608769676574, 1082.20096466934, -1238.60447918773, -1669.42279451132, -47823.7964698096, 0, ]
  - [3800, -47804.6801080393, 2098.68185390469, -45705.9982541346, 1392.10403749989, 53.4349, 53.4349, 53.4349, 152572.057499711, 1612.04783536148, 1249.68744165008, 1742.27713026855, 1844.17893416582, -47804.6801080393, 0, ]
  - [3900, -47820.7872171725, 2091.88240469552, -45728.904812477, 1387.59380614717, 53.4349, 53.4349, 53.4349, 152572.057499711, 737.579776841956, 1193.88889234774, 1393.1543615487, -374.303923370571, -47820.7872171725, 0, ]
  - [4000, -47816.5492195965, 2117.98606147829, -45698.5631581182, 1404.90896324599, 53.4349, 53.4349, 53.4349, 152572.057499711, 627.217174238755, 1267.51897137063, -399.973413043949, 1014.1059643896, -47816.5492195965, 0, ]
  - [4100, -47821.2604067379, 2096.12530653604, -45725.1351002019, 1390.40822071501, 53.4349, 53.4349, 53.4349, 152572.057499711, -324.388612338878, -380.909669315135, -511.007662958764, -81.2485047427361, -47821.2604067379, 0, ]
  - [4200, -47805.702882311, 2090.19609998148, -45715.5067823295, 1386.47524136971, 53.4349, 53.4349, 53.4349, 152572.057499711, 1006.10059585122, 842.051630914832, 565.876560526008, 1610.37359611281, -47805.702882311, 0, ]
  - [4300, -47814.1634793179, 2109.63496767985, -45704.5285116381, 1399.3694902798, 53.4349, 53.4349, 53.4349, 152572.057499711, 901.45532703621, 1734.03255361116, 674.018082479814, 296.315345017656, -47814.1634793179, 0, ]
  - [4400, -47845.9847429392, 2104.57968475125, -45741.405058188, 1396.01620461503, 53.4349, 53.4349, 53.4349, 152572.057499711, -2543.13559957069, -2983.59228060427, -3013.29088840807, -1632.52362969973, -47845.9847429392, 0, ]
  - [4500, -47843.2505158927, 2112.72173235563, -45730.5287835371, 1401.41701242327, 53.4349, 53.4349, 53.4349, 152572.057499711, -1861.92427227725, -1602.79411314919, -2180.26140285287, -1802.7173008297, -47843.2505158927, 0, ]
  - [4600, -47817.9191030494, 2098.20627410465, -45719.7128289448, 1391.78857445886, 53.4349, 53.4349, 53.4349, 152572.057499711, 744.693496303645, 2155.13042831819, 123.469277630587, -44.5192170378533, -47817.9191030494, 0, ]
  - [4700, -47821.143177023, 2103.02372422136, -45718.1194528016, 1394.98410013868, 53.4349, 53.4349, 53.4349, 152572.057499711, -166.545343014248, -408.7766208363, -608.228767458099, 517.369359251668, -47821.143177023, 0, ]
  - [4800, -47823.553843183, 2117.09380359582, -45706.4600395872, 1404.3171080306, 53.4349, 53.4349, 53.4349, 152572.057499711, 327.739502905105, -91.6229377825649, 110.995983501667, 963.84546299621, -47823.553843183, 0, ]
  - [4900, -47816.0996495384, 2113.90852055138, -45702.191128987, 1402.20423638286, 53.4349, 53.4349, 53.4349, 152572.057499711, 1061.98872197864, 691.442686751383, 1167.04978316772, 1327.47369601681, -47816.0996495384, 0, ]
  - [5000, -47820.307973046, 2120.2096845339, -45700.098288512, 1406.38394366183, 53.4349, 53.4349, 53.4349, 152572.057499711, 170.300520530284, 941.391476156389, -62.946692397893, -367.543222167646, -47820.307973046, 0, ]
  - [5100, -47815.4434188697, 2108.23632689354, -45707.2070919762, 1398.44173961477, 53.4349, 53.4349, 53.4349, 152572.057499711, 1147.00008148817, 2346.88034554555, 718.883472470111, 375.236426448846, -47815.4434188697, 0, ]
  - [5200, -47803.1050526737, 2109.021974263, -45694.0830784107, 1398.96287762006, 53.4349, 53.4349, 53.4349, 152572.057499711, 2035.27544072943, 2154.14786164004, 2302.66915011196, 1649.00931043628, -47803.1050526737, 0, ]
  - [5300, -47851.7179431838, 2149.33707166022, -45702.3808715236, 1425.70481077894, 53.4349, 53.4349, 53.4349, 152572.057499711, -2737.57388186937, -2874.88564372124, -2693.3406442182, -2644.49535766866, -47851.7179431838, 0, ]
  - [5400, -47829.1901979966, 2115.21959396945, -45713.9706040272, 1403.07390159455, 53.4349, 53.4349, 53.4349, 152572.057499711, -824.295626626173, -272.046962902905, -1561.6024877918, -639.237429183819, -47829.1901979966, 0, ]
  - [5500, -47812.6204040124, 2136.84641363614, -45675.7739903763, 1417.41946946625, 53.4349, 53.4349, 53.4349, 152572.057499711, 724.340088212539, 413.508221938207, -689.01950247813, 2448.53154517753, -47812.6204040124, 0, ]
  - [5600, -47802.452666626, 2118.48325852986, -45683.9694080961, 1405.23876550813, 53.4349, 53.4349, 53.4349, 152572.057499711, 1398.20114955215, 1607.290609316, 2015.81899909527, 571.493840245177, -47802.452666626, 0, ]
  - [5700, -47821.6685839001, 2108.99011285563, -45712.6784710445, 1398.94174321431, 53.4349, 53.4349, 53.4349, 152572.057499711, -490.957667855141, -996.7773755474, -1283.7635067865, 807.66787876847, -47821.6685839001, 0, ]
  - [5800, -47822.8107065573, 2102.00925400948, -45720.8014525478, 1394.31117866882, 53.4349, 53.4349, 53.4349, 152572.057499711, 340.726203076376, -148.642708303691, 56.8650074378104, 1113.956310095, -47822.8107065573, 0, ]
  - [5900, -47838.5999196162, 2111.03477770502, -45727.5651419112, 1400.2980165279, 53.4349, 53.4349, 53.4349, 152572.057499711, -1762.8892978041, -2189.52708155922, -2125.62730308407, -973.513508769033, -47838.5999196162, 0, ]
  - [6000, -47814.9409915518, 2098.52568462402, -45716.4153069278, 1392.00044681713, 53.4349, 53.4349, 53.4349, 152572.057499711, 878.187680533721, -33.3526992395435, 1377.66197392389, 1290.25376691683, -47814.9409915518, 0, ]
  - [6100, -47833.4304897032, 2114.2530629939, -45719.1774267093, 1402.43277932491, 53.4349, 53.4349, 53.4349, 152572.057499711, -874.824863649814, -271.518519431978, -1801.64026110571, -551.315810411749, -47833.4304897032, 0, ]
  - [6200, -47798.1145699844, 2097.72124439224, -45700.3933255921, 1391.46684307318, 53.4349, 53.4349, 53.4349, 152572.057499711, 1343.61130252409, 1724.80041023675, 1978.74657331477, 327.286924020739, -47798.1145699844, 0, ]
  - [6300, -47832.1041531889, 2096.60409732014, -45735.5000558687, 1390.72581367577, 53.4349, 53.4349, 53.4349, 152572.057499711, -1131.01040681572, -1185.39275215012, -60.741042810019, -2146.89742548701, -47832.1041531889, 0, ]
  - [6400, -47840.2914660707, 2091.7122845347, -45748.579181536, 1387.4809615241, 53.4349, 53.4349, 53.4349, 152572.057499711, -1786.55571767322, -654.492552650001, -2055.79912859099, -2649.37547177868, -47840.2914660707, 0, ]
  - [6500, -47829.5327409275, 2077.77133798202, -45751.7614029455, 1378.23361040871, 53.4349, 53.4349, 53.4349, 152572.057499711, -1143.76455112841, 79.9215232328667, -2127.71793639254, -1383.49724022555, -47829.5327409275, 0, ]
  - [6600, -47830.764428885, 2086.44589964306, -45744.3185292419, 1383.98764706244, 53.4349, 53.4349, 53.4349, 152572.057499711, -1624.9817068146, -1089.21537491043, -1962.37056815854, -1823.35917737479, -47830.764428885, 0, ]
  - [6700, -47821.4410851529, 2105.60782777185, -45715.833257381, 1396.69819557399, 53.4349, 53.4349, 53.4349, 152572.057499711, 174.108109935616, 159.669531615659, -203.745553118513, 566.400351309697, -47821.4410851529, 0, ]
  - [6800, -47814.4753300533, 2099.35798193638, -45715.1173481169, 1392.55252880458, 53.4349, 53.4349, 53.4349, 152572.057499711, 933.002984447875, 517.560414361852, 420.119024807832, 1861.32951417394, -47814.4753300533, 0, ]
  - [6900, -47831.2717516458, 2115.49594294237, -45715.7758087034, 1403.25721023671, 53.4349, 53.4349, 53.4349, 152572.057499711, -931.673433835377, -902.958565293713, -1501.19023855372, -390.871497658699, -47831.2717516458, 0, ]
  - [7000, -47814.4044371119, 2101.79945521836, -45712.6049818935, 1394.17201429589, 53.4349, 53.4349, 53.4349, 152572.057499711, 161.770738895964, -560.707925753891, 332.151277388116, 713.868865053682, -47814.4044371119, 0, ]
  - [7100, -47830.2155877164, 2078.53897916368, -45751.6766085528, 1378.74280449469, 53.4349, 53.4349, 53.4349, 152572.057499711, -674.635754842871, -2002.67447323619, -217.902510095506, 196.669718803087, -47830.2155877164, 0, ]
  - [7200, -47810.3335517781, 2107.76991917722, -45702.5636326009, 1398.13236062824, 53.4349, 53.4349, 53.4349, 152572.057499711, 1565.85717641082, 1883.3451848096, 836.65944286879, 1977.56690155406, -47810.3335517781, 0, ]
  - [7300, -47814.0366317826, 2100.80407120011, -45713.2325605825, 1393.51175313812, 53.4349, 53.4349, 53.4349, 152572.057499711, 662.009985536004, 1805.25276947606, -296.287871460744, 477.065058592679, -47814.0366317826, 0, ]
  - [7400, -47844.5758122645, 2118.05463612081, -45726.5211761437, 1404.95445038667, 53.4349, 53.4349, 53.4349, 152572.057499711, -2050.20558594655, -1685.98279693332, -3134.96190678466, -1329.67205412167, -47844.5758122645, 0, ]
  - [7500, -47829.8869572952, 2129.05263405315, -45700.8343232421, 1412.24967586238, 53.4349, 53.4349, 53.4349, 152572.057499711, -266.72547244267, -463.243722352349, -592.091045297582, 255.158350321915, -47829.8869572952, 0, ]
  - [7600, -47840.2291327889, 2116.22851549483, -45724.0006172941, 1403.74314249278, 53.4349, 53.4349, 53.4349, 152572.057499711, -1698.16976755381, -2381.42844718207, -1399.3028151967, -1313.77804028267, -47840.2291327889, 0, ]
  - [7700, -47838.6541784294, 2110.91831660214, -45727.7358618273, 1400.22076519454, 53.4349, 53.4349, 53.4349, 152572.057499711, -2180.70414231763, -2672.57914825167, -727.496098007342, -3142.03718069388, -47838.6541784294, 0, ]
  - [7800, -47835.4674566149, 2104.43018291257, -45731.0372737023, 1395.91703660019, 53.4349, 53.4349, 53.4349, 152572.057499711, -1010.31196012172, -627.998358729232, -1189.61690453725, -1213.32061709866, -47835.4674566149, 0, ]
  - [7900, -47815.0339463818, 2108.49017227102, -45706.5437741108, 1398.61012110348, 53.4349, 53.4349, 53.4349, 152572.057499711, 606.526549128221, 988.064335735166, 366.273965567233, 465.241346082259, -47815.0339463818, 0, ]
  - [8000, -47805.723001387, 2096.13513354834, -45709.5878678387, 1390.41473919874, 53.4349, 53.4349, 53.4349, 152572.057499711, 1286.49669122548, 1223.434667375, 803.566970556751, 1832.48843574467, -47805.723001387, 0, ]
  - [8100, -47816.4181078691, 2125.98083891178, -45690.4372689574, 1410.21208335606, 53.4349, 53.4349, 53.4349, 152572.057499711, 939.224929307888, 1142.29286294021, 777.141184358932, 898.240740624535, -47816.4181078691, 0, ]
  - [8200, -47841.2844416138, 2118.97696802248, -45722.3074735913, 1405.56625439204, 53.4349, 53.4349, 53.4349, 152572.057499711, -1551.70345814866, -198.167706647014, -1586.51810645258, -2870.42456134639, -47841.2844416138, 0, ]
  - [8300, -47832.7351161062, 2130.61190513014, -45702.123210976, 1413.28397630092, 53.4349, 53.4349, 53.4349, 152572.057499711, -986.507400981024, -1176.71357213631, -677.108963816186, -1105.69966699057, -47832.7351161062, 0, ]
  - [8400, -47811.3598307414, 2107.45305608029, -45703.9067746611, 1397.92217803399, 53.4349, 53.4349, 53.4349, 152572.057499711, 306.914355079044, 615.38947517426, 193.700616091718, 111.65297397115, -47811.3598307414, 0, ]
  - [8500, -47824.6669338681, 2099.11040032232, -45725.5565335457, 1392.38830221449, 53.4349, 53.4349, 53.4349, 152572.057499711, -224.472565519951, -1052.93197246686, 298.004443660212, 81.5098322468026, -47824.6669338681, 0, ]
  - [8600, -47831.4773607699, 2112.82134996959, -45718.6560108004, 1401.48309108228, 53.4349, 53.4349, 53.4349, 152572.057499711, -593.114972992917, -455.21760043243, 288.315715425796, -1612.44303397212, -47831.4773607699, 0, ]
  - [8700, -47835.0808198192, 2086.34800116466, -45748.7328186545, 1383.92270874566, 53.4349, 53.4349, 53.4349, 152572.057499711, -1452.66728943899, -744.208568930852, -1606.75126622026, -2007.04203316587, -47835.0808198192, 0, ]
  - [8800, -47828.6784848441, 2106.9968040195, -45721.6816808246, 1397.6195355278, 53.4349, 53.4349, 53.4349, 152572.057499711, -490.310786113551, -176.588588850825, -1162.68990827407, -131.653861215764, -47828.6784848441, 0, ]
  - [8900, -47799.2071277158, 2117.32278012208, -45681.8843475938, 1404.4689934372, 53.4349, 53.4349, 53.4349, 152572.057499711, 2231.80149705153, 1745.5943925094, 2592.56352562436, 2357.24657302083, -47799.2071277158, 0, ]
  - [9000, -47828.3616027578, 2125.18345328229, -45703.1781494755, 1409.68315909238, 53.4349, 53.4349, 53.4349, 152572.057499711, 106.465268023885, 922.40007034593, -302.051134351301, -300.95313192298, -47828.3616027578, 0, ]
  - [9100, -47785.9369079892, 2122.89346550661, -45663.0434424826, 1408.16415742836, 53.4349, 53.4349, 53.4349, 152572.057499711, 2889.93184681359, 2716.3032567856, 4055.47713402911, 1898.01514962607, -47785.9369079892, 0, ]
  - [9200, -47819.5007363562, 2144.83497987097, -45674.6657564852, 1422.71846954511, 53.4349, 53.4349, 53.4349, 152572.057499711, 716.121264721016, 1327.07406920234, 967.458387228815, -146.168662268107, -47819.5007363562, 0, ]
  - [9300, -47806.7100927993, 2112.78845041746, -45693.9216423818, 1401.46126805119, 53.4349, 53.4349, 53.4349, 152572.057499711, 1692.9588711698, 1170.5320017626, 2334.9203210424, 1573.4242907044, -47806.7100927993, 0, ]
  - [9400, -47836.5862968133, 2135.48487773883, -45701.1014190745, 1416.51633132918, 53.4349, 53.4349, 53.4349, 152572.057499711, -1176.23499089644, -101.393745566244, -759.854610782093, -2667.456616341, -47836.5862968133, 0, ]
  - [9500, -47798.8357323462, 2130.48567081689, -45668.3500615294, 1413.20024217189, 53.4349, 53.4349, 53.4349, 152572.057499711, 1646.871884673, 1943.09471619085, 1565.67543179669, 1431.84550603147, -47798.8357323462, 0, ]
  - [9600, -47809.3818333334, 2122.54428794353, -45686.8375453899, 1407.93253990402, 53.4349, 53.4349, 53.4349, 152572.057499711, 1353.36746942715, 676.723224987687, 1001.64222217732, 2381.73696111645, -47809.3818333334, 0, ]
  - [9700, -47828.7284343101, 2116.16056872988, -45712.5678655802, 1403.69807183777, 53.4349, 53.4349, 53.4349, 152572.057499711, -577.703299157897, -219.535117159704, -1064.04543668738, -449.529343626602, -47828.7284343101, 0, ]
  - [9800, -47817.7998217914, 2112.60577614702, -45705.1940456444, 1401.3400959979, 53.4349, 53.4349, 53.4349, 152572.057499711, -130.538085730715, -999.217306425184, 115.277953889453, 492.325095343578, -47817.7998217914, 0, ]
  - [9900, -47837.2466041386, 2099.2019374188, -45738.0446667198, 1392.44902088004, 53.4349, 53.4349, 53.4349, 152572.057499711, -1644.52173228145, -1494.4653454706, -2341.66329812778, -1097.43655324598, -47837.2466041386, 0, ]
  - [10000, -47827.4137404553, 2122.14851827266, -45705.2652221826, 1407.67001676088, 53.4349, 53.4349, 53.4349, 152572.057499711, -289.48838163989, -1070.19047895887, -166.544047546527, 368.269381585735, -47827.4137404553, 0, ]
  - [10100, -47816.4801481821, 2120.1271187293, -45696.3530294528, 1406.32917586093, 53.4349, 53.4349, 53.4349, 152572.057499711, 707.050222540468, 189.297536845733, 915.900532714108, 1015.95259806157, -47816.4801481821, 0, ]
  - [10200, -47809.8867036381, 2130.90057620692, -45678.9861274312, 1413.47545847852, 53.4349, 53.4349, 53.4349, 152572.057499711, 1180.90106992731, 189.806841152806, 1832.28780062731, 1520.60856800184, -47809.8867036381, 0, ]
  - [10300, -47829.6247476637, 2126.88723873582, -45702.7375089279, 1410.81331924719, 53.4349, 53.4349, 53.4349, 152572.057499711, -1162.20322210584, -358.506416080215, -2256.22706132882, -871.876188908504, -47829.6247476637, 0, ]
  - [10400, -47839.8594659055, 2117.82700037937, -45722.0324655261, 1404.80345435354, 53.4349, 53.4349, 53.4349, 152572.057499711, -1889.65978701901, -1826.93704018846, -2044.29588062496, -1797.74644024362, -47839.8594659055, 0, ]
  - [10500, -47826.2954479647, 2119.53964376505, -45706.7558041997, 1405.93949017887, 53.4349, 53.4349, 53.4349, 152572.057499711, -129.478133543732, -165.116390717396, 876.01666984208, -1099.33467975586, -47826.2954479647, 0, ]
  - [10600, -47822.8434937436, 2116.36262211563, -45706.480871628, 1403.83209850483, 53.4349, 53.4349, 53.4349, 152572.057499711, -556.974710741915, -88.4017263610835, -962.861000193425, -619.661405671236, -47822.8434937436, 0, ]
  - [10700, -47830.3029868465, 2129.73730200787, -45700.5656848386, 1412.70383189482, 53.4349, 53.4349, 53.4349, 152572.057499711, -443.237782730778, 66.534586902264, -879.157837771687, -517.090097322916, -47830.3029868465, 0, ]
  - [10800, -47801.9540281695, 2125.71005691971, -45676.2439712498, 1410.03246742059, 53.4349, 53.4349, 53.4349, 152572.057499711, 1996.31047412317, 2227.17683902738, 1983.21275209058, 1778.54183125156, -47801.9540281695, 0, ]
  - [10900, -47806.0152929084, 2122.73607417131, -45683.2792187371, 1408.0597561286, 53.4349, 53.4349, 53.4349, 152572.057499711, 1776.61020742316, 1911.03217985791, 2144.69467893768, 1274.10376347388, -47806.0152929084, 0, ]
  - [11000, -47838.7063659162, 2100.67500285475, -45738.0313630614, 1393.42613913028, 53.4349, 53.4349, 53.4349, 152572.057499711, -1869.63419748638, -3236.02027085124, -1533.12332412755, -839.758997480329, -47838.7063659162, 0, ]
  - [11100, -47840.2671204833, 2125.47991374586, -45714.7872067375, 1409.87980814976, 53.4349, 53.4349, 53.4349, 152572.057499711, -1606.33021843466, -1548.72683614408, -2006.2354715307, -1264.02834762919, -47840.2671204833, 0, ]
  - [11200, -47812.5225028572, 2105.84659768577, -45706.6759051714, 1396.85657716031, 53.4349, 53.4349, 53.4349, 152572.057499711, 1462.52452175772, 1792.09434426067, 1651.0234326362, 944.455788376294, -47812.5225028572, 0, ]
  - [11300, -47825.5272996344, 2124.71756479025, -45700.8097348442, 1409.37412451928, 53.4349, 53.4349, 53.4349, 152572.057499711, -773.503210840155, -758.847183990164, -1822.47990238891, 260.817453858617, -47825.5272996344, 0, ]
  - [11400, -47819.7003424888, 2110.55374591123, -45709.1465965776, 1399.97893705377, 53.4349, 53.4349, 53.4349, 152572.057499711, -178.266878215635, 118.432598536821, 151.8272609608, -805.060494144521, -47819.7003424888, 0, ]
  - [11500, -47827.6540342992, 2092.45584180285, -45735.1981924963, 1387.97418019524, 53.4349, 53.4349, 53.4349, 152572.057499711, -898.79913069614, -273.318739347463, -783.826480399869, -1639.25217234109, -47827.6540342992, 0, ]
  - [11600, -47818.5329301496, 2091.91938421978, -45726.6135459298, 1387.6183355178, 53.4349, 53.4349, 53.4349, 152572.057499711, 445.568602674898, 877.747944285991, 489.447494753946, -30.4896310152582, -47818.5329301496, 0, ]
  - [11700, -47834.8760087027, 2124.39794216745, -45710.4780665353, 1409.16211146793, 53.4349, 53.4349, 53.4349, 152572.057499711, -1670.98132368019, -15.4834861567554, -1713.57775574522, -3283.88272913861, -47834.8760087027, 0, ]
  - [11800, -47835.6516462888, 2124.23439827677, -45711.417248012, 1409.0536290364, 53.4349, 53.4349, 53.4349, 152572.057499711, -1551.24389735036, -1039.35144517847, -1659.05370092516, -1955.32654594745, -47835.6516462888, 0, ]
  - [11900, -47829.0810126739, 2098.92589922731, -45730.1551134465, 1392.26591838637, 53.4349, 53.4349, 53.4349, 152572.057499711, -982.820185803606, -1152.32178474349, -452.484694304298, -1343.65407836303, -47829.0810126739, 0, ]
  - [12000, -47819.4997881034, 2072.41930723409, -45747.0804808693, 1374.68348507688, 53.4349, 53.4349, 53.4349, 152572.057499711, -106.067636160599, 719.3300933677, -468.760505406832, -568.772496442658, -47819.4997881034, 0, ]
  - [12100, -47827.6287263938, 2080.51141783203, -45747.1173085618, 1380.05116851795, 53.4349, 53.4349, 53.4349, 152572.057499711, -1511.78662992518, -408.289830015032, -2686.50178194364, -1440.56827781686, -47827.6287263938, 0, ]
  - [12200, -47817.445263228, 2108.36903824551, -45709.0762249825, 1398.52977011285, 53.4349, 53.4349, 53.4349, 152572.057499711, 462.64327805694, -73.8471782608906, 637.29453469293, 824.48247773878, -47817.445263228, 0, ]
  - [12300, -47790.0267908472, 2092.38626075814, -45697.640530089, 1387.92802548479, 53.4349, 53.4349, 53.4349, 152572.057499711, 2568.20580262293, 2530.57974889294, 2486.42162921144, 2687.61602976439, -47790.0267908472, 0, ]
  - [12400, -47823.4185749169, 2118.51702561653, -45704.9015493004, 1405.26116399488, 53.4349, 53.4349, 53.4349, 152572.057499711, 293.254535217106, 610.152593253823, -866.230209366997, 1135.84122176449, -47823.4185749169, 0, ]
  - [12500, -47833.4845899376, 2122.40687145481, -45711.0777184828, 1407.84138838031, 53.4349, 53.4349, 53.4349, 152572.057499711, -1390.80126147786, -78.3353086221026, -1779.77571294991, -2314.29276286157, -47833.4845899376, 0, ]
  - [12600, -47821.294523519, 2097.67842300965, -45723.6161005094, 1391.43843866329, 53.4349, 53.4349, 53.4349, 152572.057499711, 372.736144071608, -133.173408020121, 1025.33898226477, 226.042857970175, -47821.294523519, 0, ]
  - [12700, -47820.0499026476, 2128.04400441126, -45692.0058982363, 1411.5806285772, 53.4349, 53.4349, 53.4349, 152572.057499711, 627.581973545173, 10.7243866750772, -3.62864678606132, 1875.65018074651, -47820.0499026476, 0, ]
  - [12800, -47828.6948845882, 2116.24187347025, -45712.453011118, 1403.75200314571, 53.4349, 53.4349, 53.4349, 152572.057499711, -736.487815206357, -1461.67579134535, -330.626542763271, -417.161111510455, -47828.6948845882, 0, ]
  - [12900, -47821.3556126249, 2114.59283426067, -45706.7627783642, 1402.65815743614, 53.4349, 53.4349, 53.4349, 152572.057499711, 530.069979710073, -225.694865561794, 565.115482263033, 1250.78932242898, -47821.3556126249, 0, ]
  - [13000, -47833.606405535, 2134.44500163573, -45699.1614038992, 1415.8265575462, 53.4349, 53.4349, 53.4349, 152572.057499711, -1303.19178947825, -1700.57076625039, -1348.80826828756, -860.196333896803, -47833.606405535, 0, ]
  - [13100, -47829.5685630991, 2114.54072757021, -45715.0278355289, 1402.62359386757, 53.4349, 53.4349, 53.4349, 152572.057499711, -1418.46672397206, -1758.00301676658, -1225.57923421301, -1271.81792093661, -47829.5685630991, 0, ]
  - [13200, -47865.488380604, 2146.34647048447, -45719.1419101195, 1423.72107610111, 53.4349, 53.4349, 53.4349, 152572.057499711, -3607.3856989529, -3730.27670691306, -4320.11844797114, -2771.76194197449, -47865.488380604, 0, ]
  - [13300, -47813.6962312004, 2077.7520243729, -45735.9442068275, 1378.22079924671, 53.4349, 53.4349, 53.4349, 152572.057499711, 1083.77572947077, 40.926801423151, 1615.47083881672, 1594.92954817245, -47813.6962312004, 0, ]
  - [13400, -47819.4488132882, 2114.97203321121, -45704.476780077, 1402.90968883861, 53.4349, 53.4349, 53.4349, 152572.057499711, -131.586215668412, 1184.99120365083, 49.8614602541998, -1629.61131091026, -47819.4488132882, 0, ]
  - [13500, -47822.687264597, 2105.06390109077, -45717.6233635062, 1396.33739647173, 53.4349, 53.4349, 53.4349, 152572.057499711, 351.526867184864, 1211.84959892987, -27.4405943464698, -129.828403028805, -47822.687264597, 0, ]
  - [13600, -47826.0364031056, 2104.46008770464, -45721.576315401, 1395.93687313792, 53.4349, 53.4349, 53.4349, 152572.057499711, -609.800457322672, -1000.72086918946, -954.276273397186, 125.59577061862, -47826.0364031056, 0, ]
  - [13700, -47853.9575308093, 2122.47900522238, -45731.478525587, 1407.88923637065, 53.4349, 53.4349, 53.4349, 152572.057499711, -3502.57808545866, -3912.50088666615, -3067.60734796989, -3527.62602173994, -47853.9575308093, 0, ]
  - [13800, -47845.7207174447, 2094.92587528156, -45750.7948421631, 1389.61261032321, 53.4349, 53.4349, 53.4349, 152572.057499711, -1945.04858701574, -1893.02069698418, -2628.96630565307, -1313.15875840998, -47845.7207174447, 0, ]
  - [13900, -47834.1960823445, 2119.94706478236, -45714.2490175621, 1406.2097419286, 53.4349, 53.4349, 53.4349, 152572.057499711, -579.370516572611, -1471.3953836072, -662.961656352951, 396.245490242304, -47834.1960823445, 0, ]
  - [14000, -47816.5639631646, 2094.34660528817, -45722.2173578764, 1389.22836718741, 53.4349, 53.4349, 53.4349, 152572.057499711, 339.3287881117, 251.406513883327, -725.573656457341, 1492.15350690911, -47816.5639631646, 0, ]
  - [14100, -47816.0247149658, 2103.46596484095, -45712.5587501249, 1395.27744853302, 53.4349, 53.4349, 53.4349, 152572.057499711, -32.5011896114768, 223.545006954456, -1430.44958707625, 1109.40101128739, -47816.0247149658, 0, ]
  - [14200, -47820.7967539149, 2125.48018710834, -45695.3165668066, 1409.87998947739, 53.4349, 53.4349, 53.4349, 152572.057499711, -110.085719508005, -1616.48435383889, 543.394913618725, 742.83228169615, -47820.7967539149, 0, ]
  - [14300, -47847.9808922295, 2116.51357869184, -45731.4673135377, 1403.93223148059, 53.4349, 53.4349, 53.4349, 152572.057499711, -2542.87934591249, -3603.74134171783, -917.760520836417, -3107.13617518323, -47847.9808922295, 0, ]
  - [14400, -47815.642374739, 2109.86882923695, -45705.773545502, 1399.52461603993, 53.4349, 53.4349, 53.4349, 152572.057499711, 409.435633834193, 1061.30133750457, 318.908721654058, -151.903157656042, -47815.642374739, 0, ]
  - [14500, -47817.1333448774, 2110.86143875441, -45706.271906123, 1400.1830368074, 53.4349, 53.4349, 53.4349, 152572.057499711, 1239.21325267092, 712.685821035119, 1337.21258417362, 1667.74135280403, -47817.1333448774, 0, ]
  - [14600, -47829.2234033795, 2114.16893964747, -45715.054463732, 1402.37697837062, 53.4349, 53.4349, 53.4349, 152572.057499711, -464.791470600203, -30.798624902659, 463.246954601601, -1826.82274149955, -47829.2234033795, 0, ]
  - [14700, -47824.5772955773, 2102.72654870833, -45721.8507468689, 1394.78697677252, 53.4349, 53.4349, 53.4349, 152572.057499711, 464.773926429229, -14.2286803813902, 1327.90893669185, 80.6415229772222, -47824.5772955773, 0, ]
  - [14800, -47822.4782438813, 2097.41120578957, -45725.0670380917, 1391.26118732323, 53.4349, 53.4349, 53.4349, 152572.057499711, 155.522784023413, -462.061234155277, 64.7535367111392, 863.87604951438, -47822.4782438813, 0, ]
  - [14900, -47823.4438918002, 2107.62530348477, -45715.8185883154, 1398.03643370679, 53.4349, 53.4349, 53.4349, 152572.057499711, -629.565356469082, -457.04456521047, -858.707483757769, -572.944020439009, -47823.4438918002, 0, ]
  - [15000, -47824.5581972736, 2121.2673236341, -45703.2908736395, 1407.08550005013, 53.4349, 53.4349, 53.4349, 152572.057499711, -751.838000447404, 51.5703569537966, -1978.98681403842, -328.097544257586, -47824.5581972736, 0, ]
  - [15100, -47849.4386610043, 2125.49810016384, -45723.9405608405, 1409.89187161991, 53.4349, 53.4349, 53.4349, 152572.057499711, -2630.15765257437, -1467.3265054771, -3085.37047989013, -3337.77597235589, -47849.4386610043, 0, ]
  - [15200, -47843.8294537516, 2099.03358885778, -45744.7958648938, 1392.33735139995, 53.4349, 53.4349, 53.4349, 152572.057499711, -2022.45764435674, -1502.87168435638, -1805.60284630872, -2758.89840240512, -47843.8294537516, 0, ]
  - [15300, -47808.3874968419, 2098.3319285224, -45710.0555683195, 1391.87192392984, 53.4349, 53.4349, 53.4349, 152572.057499711, 2035.15100924309, 2569.78328649324, 1724.32650315659, 1811.34323807943, -47808.3874968419, 0, ]
  - [15400, -47838.7730467068, 2111.31285398673, -45727.4601927201, 1400.48247093378, 53.4349, 53.4349, 53.4349, 152572.057499711, -1856.03739143335, -2405.54709213518, -1510.9401833525, -1651.62489881237, -47838.7730467068, 0, ]
  - [15500, -47824.4045273934, 2114.3245578273, -45710.0799695661, 1402.48020349549, 53.4349, 53.4349, 53.4349, 152572.057499711, -331.126818893558, 40.0028473814503, 42.2789048692822, -1075.66220893141, -47824.4045273934, 0, ]
  - [15600, -47832.953508165, 2085.20915898803, -45747.7443491769, 1383.16728848546, 53.4349, 53.4349, 53.4349, 152572.057499711, -1515.35908673057, -1658.79659667477, -61.8487695567007, -2825.43189396023, -47832.953508165, 0, ]
  - [15700, -47794.3000694312, 2090.36934095324, -45703.930728478, 1386.59015609859, 53.4349, 53.4349, 53.4349, 152572.057499711, 2130.3092988487, 1373.35698195514, 3404.23874603319, 1613.33216855777, -47794.3000694312, 0, ]
  - [15800, -47828.5673191053, 2112.01109512931, -45716.556223976, 1400.94563037452, 53.4349, 53.4349, 53.4349, 152572.057499711, -464.636767668385, -1102.16842265226, 315.905711840648, -607.64759219354, -47828.5673191053, 0, ]
  - [15900, -47835.4986706899, 2109.48297979819, -45726.0156908917, 1399.26867321535, 53.4349, 53.4349, 53.4349, 152572.057499711, -1428.78602061691, -922.017618150269, -1476.87332428854, -1887.4671194119, -47835.4986706899, 0, ]
  - [16000, -47831.281512228, 2106.03443964844, -45725.2470725796, 1396.98117706294, 53.4349, 53.4349, 53.4349, 152572.057499711, -906.228833726644, 549.523383570283, -1437.23667901724, -1830.97320573297, -47831.281512228, 0, ]
  - [16100, -47819.5363711438, 2111.03093428495, -45708.5054368589, 1400.2954670988, 53.4349, 53.4349, 53.4349, 152572.057499711, 70.8513308234933, -28.3889719421411, 630.149706827953, -389.206742415332, -47819.5363711438, 0, ]
  - [16200, -47824.6064783509, 2122.72861884746, -45701.8778595034, 1408.05481084048, 53.4349, 53.4349, 53.4349, 152572.057499711, 60.4008708142324, -566.035981950206, 1142.44963056833, -395.21103617543, -47824.6064783509, 0, ]
  - [16300, -47818.3303181118, 2099.52700103973, -45718.8033170721, 1392.66464307085, 53.4349, 53.4349, 53.4349, 152572.057499711, -155.157110816714, -201.428210653537, 304.556251423295, -568.599373219891, -47818.3303181118, 0, ]
  - [16400, -47830.8871502399, 2154.307270333, -45676.5798799069, 1429.00165809607, 53.4349, 53.4349, 53.4349, 152572.057499711, -785.486844595512, -451.918543343253, -232.836581472023, -1671.70540897127, -47830.8871502399, 0, ]
  - [16500, -47817.629814964, 2131.45243551951, -45686.1773794445, 1413.84151947808, 53.4349, 53.4349, 53.4349, 152572.057499711, -948.910096626066, -310.497841149231, -1959.85677086459, -576.375677864364, -47817.629814964, 0, ]
  - [16600, -47808.5155495531, 2109.37616875745, -45699.1393807957, 1399.19782299058, 53.4349, 53.4349, 53.4349, 152572.057499711, 1444.78628161128, 1210.54441764866, 2042.40144269004, 1081.41298449514, -47808.5155495531, 0, ]
  - [16700, -47827.891558781, 2098.28109522522, -45729.6104635557, 1391.83820503238, 53.4349, 53.4349, 53.4349, 152572.057499711, -347.029330998124, -424.987019201887, -938.752270311788, 322.651296519306, -47827.891558781, 0, ]
  - [16800, -47810.3134679513, 2137.94378965717, -45672.3696782941, 1418.14738426986, 53.4349, 53.4349, 53.4349, 152572.057499711, 1533.23290342281, 1756.77079431008, 1698.19691737765, 1144.73099858068, -47810.3134679513, 0, ]
  - [16900, -47826.168445384, 2106.92976998693, -45719.2386753971, 1397.57507030921, 53.4349, 53.4349, 53.4349, 152572.057499711, -241.970789960662, -454.516474656323, 660.503268847999, -931.899164073659, -47826.168445384, 0, ]
  - [17000, -47829.5875002742, 2107.48225620558, -45722.1052440686, 1397.94154715, 53.4349, 53.4349, 53.4349, 152572.057499711, -801.824353914555, -1056.70091491868, 132.11345910366, -1480.88560592865, -47829.5875002742, 0, ]
  - [17100, -47823.2557775809, 2102.10587101853, -45721.1499065624, 1394.37526695745, 53.4349, 53.4349, 53.4349, 152572.057499711, -1010.98782886111, -759.329511466036, -1107.84390225832, -1165.79007285898, -47823.2557775809, 0, ]
  - [17200, -47829.3512869608, 2116.93857205097, -45712.4127149098, 1404.21413936961, 53.4349, 53.4349, 53.4349, 152572.057499711, -643.071191399749, 75.5824882914192, -1621.61412373781, -383.181938752867, -47829.3512869608, 0, ]
  - [17300, -47837.1982017146, 2098.73841782481, -45738.4597838898, 1392.14155765161, 53.4349, 53.4349, 53.4349, 152572.057499711, -1724.62281323426, -2040.45678285107, -2392.98296216179, -740.428694689931, -47837.1982017146, 0, ]
  - [17400, -47829.146177837, 2072.43088190464, -45756.7152959324, 1374.69116282259, 53.4349, 53.4349, 53.4349, 152572.057499711, -550.637489156375, -1299.53712049845, 552.743548184596, -905.118895155274, -47829.146177837, 0, ]
  - [17500, -47849.7424824837, 2073.77886920751, -45775.9636132761, 1375.58531386475, 53.4349, 53.4349, 53.4349, 152572.057499711, -2665.79486229499, -2788.96044633154, -2502.67571787408, -2705.74842267936, -47849.7424824837, 0, ]
  - [17600, -47846.8428108006, 2110.44974403638, -45736.3930667642, 1399.90995021348, 53.4349, 53.4349, 53.4349, 152572.057499711, -2185.21491608623, -1921.59934860457, -1333.2077721702, -3300.83762748391, -47846.8428108006, 0, ]
  - [17700, -47830.7546032242, 2114.78499832271, -45715.9696049015, 1402.78562428688, 53.4349, 53.4349, 53.4349, 152572.057499711, -937.185115364576, -2579.40961411048, -904.63009573777, 672.484363754526, -47830.7546032242, 0, ]
  - [17800, -47812.5763009148, 2110.77513694872, -45701.8011639661, 1400.12579083087, 53.4349, 53.4349, 53.4349, 152572.057499711, 502.411748023766, 1338.15996317789, -306.617326579678, 475.692607473091, -47812.5763009148, 0, ]
  - [17900, -47833.0500963006, 2133.22165017762, -45699.828446123, 1415.01508033209, 53.4349, 53.4349, 53.4349, 152572.057499711, -669.083765616518, -607.079286823381, -203.659178718674, -1196.5128313075, -47833.0500963006, 0, ]
  - [18000, -47829.7303811598, 2123.2961722382, -45706.4342089216, 1408.43128208374, 53.4349, 53.4349, 53.4349, 152572.057499711, -1403.86618537984, -1840.67892421741, -1124.07799392956, -1246.84163799256, -47829.7303811598, 0, ]
  - [18100, -47814.2835761431, 2113.85714096693, -45700.4264351762, 1402.17015512046, 53.4349, 53.4349, 53.4349, 152572.057499711, 720.438001711835, 445.308317369525, 1363.65391711757, 352.35177064841, -47814.2835761431, 0, ]
  - [18200, -47825.9150075365, 2119.55653248747, -45706.358475049, 1405.95069285765, 53.4349, 53.4349, 53.4349, 152572.057499711, -568.6035974322, -572.552544889768, -550.435529701777, -582.82271770506, -47825.9150075365, 0, ]
  - [18300, -47825.3897018592, 2094.09635365761, -45731.2933482016, 1389.06236951385, 53.4349, 53.4349, 53.4349, 152572.057499711, -1805.6003665076, -807.18533977817, -2709.981596607, -1899.63416313764, -47825.3897018592, 0, ]
  - [18400, -47827.2209887448, 2117.7753446908, -45709.445644054, 1404.76918994492, 53.4349, 53.4349, 53.4349, 152572.057499711, -757.413171672167, -401.599508944994, -1098.10545175381, -772.534554317685, -47827.2209887448, 0, ]
  - [18500, -47824.8003437793, 2100.29621715808, -45724.5041266212, 1393.17488184862, 53.4349, 53.4349, 53.4349, 152572.057499711, -674.9798800959, -165.1339501801, -540.297991015599, -1319.507699092, -47824.8003437793, 0, ]
  - [18600, -47826.8519327272, 2135.52638569788, -45691.3255470294, 1416.54386451496, 53.4349, 53.4349, 53.4349, 152572.057499711, -417.396763256929, -110.131930294469, -128.818844144688, -1013.23951533162, -47826.8519327272, 0, ]
  - [18700, -47786.1044400451, 2120.35207505136, -45665.7523649937, 1406.47839457343, 53.4349, 53.4349, 53.4349, 152572.057499711, 3473.72806211973, 4041.41268523886, 3447.64475119003, 2932.12674993031, -47786.1044400451, 0, ]
  - [18800, -47820.2610329475, 2124.67514439399, -45695.5858885535, 1409.34598609288, 53.4349, 53.4349, 53.4349, 152572.057499711, 495.947972911143, 759.210963741451, 198.383270181897, 530.249684810078, -47820.2610329475, 0, ]
  - [18900, -47825.7092059194, 2126.26260854183, -45699.4465973776, 1410.39898764501, 53.4349, 53.4349, 53.4349, 152572.057499711, -421.71509635144, -914.984557979675, 964.874986215828, -1315.03571729047, -47825.7092059194, 0, ]
  - [19000, -47834.1497534474, 2119.06962049876, -45715.0801329486, 1405.62771291473, 53.4349, 53.4349, 53.4349, 152572.057499711, -1120.38318735525, -266.189886130675, -1637.60188542462, -1457.35779051046, -47834.1497534474, 0, ]
  - [19100, -47817.0374979794, 2119.6473790906, -45697.3901188888, 1406.01095350305, 53.4349, 53.4349, 53.4349, 152572.057499711, 71.9888425806262, 76.1623296325463, -71.0661806175464, 210.870378726876, -47817.0374979794, 0, ]
  - [19200, -47809.3465481503, 2124.62360824847, -45684.7229399018, 1409.31180097991, 53.4349, 53.4349, 53.4349, 152572.057499711, 1002.26136012011, 1149.6831757268, 830.827468433861, 1026.27343619965, -47809.3465481503, 0, ]
  - [19300, -47796.6887642713, 2099.61443583622, -45697.074328435, 1392.72264058628, 53.4349, 53.4349, 53.4349, 152572.057499711, 2779.0805605311, 3613.80308214161, 2446.31677895825, 2277.12182049344, -47796.6887642713, 0, ]
  - [19400, -47812.9051713808, 2093.93387042856, -45718.9713009523, 1388.95459064361, 53.4349, 53.4349, 53.4349, 152572.057499711, 1121.90998446366, 1728.91977539327, 1361.85093503773, 274.959242959974, -47812.9051713808, 0, ]
  - [19500, -47808.7336320015, 2114.25385332836, -45694.4797786732, 1402.43330357197, 53.4349, 53.4349, 53.4349, 152572.057499711, 1243.82433021078, 1028.70900413921, 2120.3485387141, 582.415447779023, -47808.7336320015, 0, ]
  - [19600, -47821.3826896059, 2109.99530733221, -45711.3873822737, 1399.60851187518, 53.4349, 53.4349, 53.4349, 152572.057499711, -363.050866234453, 485.193670776055, -1240.41554833925, -333.930721140161, -47821.3826896059, 0, ]
  - [19700, -47826.898882492, 2128.18665643555, -45698.7122260564, 1411.6752529523, 53.4349, 53.4349, 53.4349, 152572.057499711, -594.292279372147, -780.883101901006, -1049.08758039941, 47.0938441839702, -47826.898882492, 0, ]
  - [19800, -47813.5097613967, 2129.53974364186, -45683.9700177549, 1412.57278687794, 53.4349, 53.4349, 53.4349, 152572.057499711, 1029.43226710051, 213.448662413006, 2134.61221806658, 740.235920821935, -47813.5097613967, 0, ]
  - [19900, -47798.7565823867, 2113.35943769371, -45685.397144693, 1401.84001706984, 53.4349, 53.4349, 53.4349, 152572.057499711, 2593.36448821151, 2519.2469896452, 2002.43383799167, 3258.41263699766, -47798.7565823867, 0, ]
  - [20000, -47785.6054716611, 2093.45451534516, -45692.1509563159, 1388.63662337013, 53.4349, 53.4349, 53.4349, 152572.057499711, 2761.31923494686, 2637.00441187149, 2475.28034532528, 3171.67294764381, -49684.9429163131, 0, ]
...
Loop time of 24.9207 on 64 procs for 20000 steps with 11664 atoms

Performance: 69.340 ns/day, 0.346 hours/ns, 802.545 timesteps/s, 9.361 Matom-step/s
66.9% CPU use with 64 MPI tasks x 1 OpenMP threads

MPI task timing breakdown:
Section |  min time  |  avg time  |  max time  |%varavg| %total
---------------------------------------------------------------
Pair    | 13.456     | 14.415     | 15.135     |   6.8 | 57.84
Neigh   | 0.079203   | 0.087628   | 0.091926   |   0.6 |  0.35
Comm    | 6.2938     | 6.9719     | 7.81       |  15.5 | 27.98
Output  | 0.031802   | 0.033086   | 0.10164    |   4.7 |  0.13
Modify  | 2.1462     | 2.8914     | 3.7318     |  26.9 | 11.60
Other   |            | 0.5215     |            |       |  2.09

Nlocal:         182.25 ave         194 max         172 min
Histogram: 4 5 5 11 7 13 11 3 4 1
Nghost:           1270 ave        1283 max        1259 min
Histogram: 6 3 7 10 9 10 7 8 3 1
Neighs:        7057.22 ave        7539 max        6587 min
Histogram: 3 3 8 7 11 12 7 6 4 3

Total # of neighbors = 451662
Ave neighs/atom = 38.722737
Neighbor list builds = 234
Dangerous builds = 0
fix fpf all print 1 "${dE} ${lambda}" title "# dE [eV] lambda" screen no file data/forward_${T}K.dat
fix fpf all print 1 "${dE} ${lambda}" title "# dE [eV] lambda" screen no file data/forward_1400K.dat
run ${t}
run 100000
Per MPI rank memory allocation (min/avg/max) = 3.736 | 3.736 | 3.736 Mbytes
---
keywords: ['Step', 'PotEng', 'KinEng', 'TotEng', 'Temp', 'Lx', 'Ly', 'Lz', 'Volume', 'Press', 'Pxx', 'Pyy', 'Pzz', 'v_dE', 'v_lambda', ]
data:
  - [20000, -47785.6054716611, 2093.45451534516, -45692.1509563159, 1388.63662337013, 53.4349, 53.4349, 53.4349, 152572.057499711, 2761.31923494686, 2637.00441187148, 2475.2803453253, 3171.67294764379, -49684.9429163131, 0, ]
  - [20100, -47834.8090950303, 2105.91792444256, -45728.8911705878, 1396.90388984181, 53.4349, 53.4349, 53.4349, 152572.057499711, -1097.84497147006, -1775.82416975687, -348.951552411012, -1168.7591922423, -49707.7332688123, 1.2558053968507e-13, ]
  - [20200, -47805.0640455045, 2103.10210501628, -45701.9619404882, 1395.03609192622, 53.4349, 53.4349, 53.4349, 152572.057499711, 2004.46659886818, 1445.63392839823, 2032.54160895095, 2535.22425925535, -49668.4539908092, 4.00518903939584e-12, ]
  - [20300, -47834.4229243978, 2094.04509317206, -45740.3778312258, 1389.02836725249, 53.4349, 53.4349, 53.4349, 152572.057499711, -1611.35511307619, -2059.57966092831, -1544.704837393, -1229.78084090726, -49637.7123473337, 3.03129989146628e-11, ]
  - [20400, -47841.781017746, 2097.24113841326, -45744.5398793327, 1391.14837771335, 53.4349, 53.4349, 53.4349, 152572.057499711, -1353.30137805722, -1003.30935950649, -1833.52718505589, -1223.06758960928, -49632.0014731979, 1.2731250673451e-10, ]
  - [20500, -47828.2134439059, 2108.64119619357, -45719.5722477124, 1398.71029875163, 53.4349, 53.4349, 53.4349, 152572.057499711, -872.309491452935, -869.856415175043, -588.328654432233, -1158.74340475153, -49679.5387810902, 3.87229564589844e-10, ]
  - [20600, -47823.1663001274, 2084.43189953139, -45738.734400596, 1382.65171437604, 53.4349, 53.4349, 53.4349, 152572.057499711, -305.248113904339, -1221.92194273114, 1197.00306176721, -890.825460749091, -49685.9562939731, 9.60331117066399e-10, ]
  - [20700, -47831.2444805718, 2115.40851832984, -45715.835962242, 1403.19921947653, 53.4349, 53.4349, 53.4349, 152572.057499711, -591.436812961629, -127.014952270426, -612.88112934777, -1034.41435726669, -49701.1976758133, 2.06871232013244e-09, ]
  - [20800, -47817.0003840087, 2113.28036277084, -45703.7200212379, 1401.78756485122, 53.4349, 53.4349, 53.4349, 152572.057499711, 902.765408263618, 249.651646812331, 531.323188025563, 1927.32138995295, -49691.6998467538, 4.0197947066522e-09, ]
  - [20900, -47824.6429301681, 2096.0295285148, -45728.6134016533, 1390.34468894634, 53.4349, 53.4349, 53.4349, 152572.057499711, -825.077799525186, -925.45814772743, -612.865347766575, -936.90990308155, -49668.2701184941, 7.21953805066232e-09, ]
  - [21000, -47809.4519789808, 2089.06756549359, -45720.3844134872, 1385.72665843699, 53.4349, 53.4349, 53.4349, 152572.057499711, 1413.28605037204, 1800.13438950806, 1711.66349268001, 728.060268928073, -49643.0073448317, 1.218536857e-08, ]
  - [21100, -47838.986380776, 2117.02683478876, -45721.9595459873, 1404.27268607759, 53.4349, 53.4349, 53.4349, 152572.057499711, -1512.59380522373, -1801.72118010577, -1379.8761580472, -1356.18407751823, -49683.0500886003, 1.95588260943488e-08, ]
  - [21200, -47824.1651604944, 2108.77833609653, -45715.3868243979, 1398.80126680964, 53.4349, 53.4349, 53.4349, 152572.057499711, -143.147019312604, 259.426511133493, -621.368732993868, -67.4988360774359, -49711.6248539056, 3.01179328132704e-08, ]
  - [21300, -47828.3116293644, 2097.14545032239, -45731.166179042, 1391.08490559756, 53.4349, 53.4349, 53.4349, 152572.057499711, -1157.62166437903, -1022.04016891234, -1623.17363873512, -827.651185489622, -49701.1585735668, 4.47892862063179e-08, ]
  - [21400, -47819.6264723774, 2117.04944636148, -45702.5770260159, 1404.28768485486, 53.4349, 53.4349, 53.4349, 152572.057499711, 409.34416659475, 530.702465575552, -900.35282582541, 1597.68286003411, -49687.3713235389, 6.46598787448807e-08, ]
  - [21500, -47819.6607258665, 2104.701519177, -45714.9592066895, 1396.09702019729, 53.4349, 53.4349, 53.4349, 152572.057499711, 394.023434353739, -406.291519553435, 715.030114260816, 873.331708353827, -49701.0332054864, 9.09886469429883e-08, ]
  - [21600, -47801.2783391512, 2126.42220031797, -45674.8561388332, 1410.50484854789, 53.4349, 53.4349, 53.4349, 152572.057499711, 2199.06408366466, 2173.94325950358, 1986.95473377705, 2436.29425771334, -49706.0562430503, 1.25217752321905e-07, ]
  - [21700, -47817.0452864163, 2110.39047510331, -45706.654811313, 1399.87063576433, 53.4349, 53.4349, 53.4349, 152572.057499711, -91.6275706260435, -261.521573145631, 103.797605401181, -117.158744133673, -49681.0546669838, 1.68983596840977e-07, ]
  - [21800, -47823.7760334087, 2115.15025548577, -45708.6257779229, 1403.02790778043, 53.4349, 53.4349, 53.4349, 152572.057499711, -451.615812796077, -770.096332629459, 543.517035840202, -1128.26814159896, -49695.1370124891, 2.24127575334849e-07, ]
  - [21900, -47824.1606737861, 2147.09419807754, -45677.0664757085, 1424.21706104486, 53.4349, 53.4349, 53.4349, 152572.057499711, -354.805739515374, -522.507346903269, -936.278205148609, 394.36833350576, -49671.4779981545, 2.92706567484841e-07, ]
  - [22000, -47818.6713882742, 2115.67428696747, -45702.9971013067, 1403.37550993847, 53.4349, 53.4349, 53.4349, 152572.057499711, 435.702443524466, 1061.85382103924, 916.237075762643, -670.983566228488, -49667.6792014606, 3.7700317184e-07, ]
  - [22100, -47835.0808333897, 2122.13112682375, -45712.9497065659, 1407.65848061204, 53.4349, 53.4349, 53.4349, 152572.057499711, -714.481426265836, -753.650868580893, -2319.89711286674, 930.103702650118, -49681.4360863449, 4.79535684391045e-07, ]
  - [22200, -47804.8507416943, 2108.55318931927, -45696.297552375, 1398.65192176381, 53.4349, 53.4349, 53.4349, 152572.057499711, 1265.96339389785, 291.367612586366, 1994.10010141234, 1512.42246769484, -49721.152842495, 6.03067824188202e-07, ]
  - [22300, -47837.8771607198, 2125.10440111383, -45712.7727596059, 1409.6307219673, 53.4349, 53.4349, 53.4349, 152572.057499711, -1501.3013402344, -1019.13138025882, -1782.16234413789, -1702.61029630647, -49766.7965543902, 7.50618208481703e-07, ]
  - [22400, -47821.0213863569, 2082.20123836276, -45738.8201479941, 1381.17206541764, 53.4349, 53.4349, 53.4349, 152572.057499711, -341.43019035453, -829.606677696801, 712.254932665117, -906.938826031915, -49768.2136195319, 9.25469579851522e-07, ]
  - [22500, -47813.1849507667, 2090.6453047758, -45722.5396459909, 1386.77320926164, 53.4349, 53.4349, 53.4349, 152572.057499711, 735.075548082866, 1109.32461257989, 643.182796030208, 452.719235638501, -49731.2813958563, 1.13117778778076e-06, ]
  - [22600, -47834.8349806371, 2094.1439614891, -45740.691019148, 1389.09394888559, 53.4349, 53.4349, 53.4349, 152572.057499711, -2121.66969730851, -2584.96513963282, -1639.08831735585, -2140.95563493685, -49734.4455766291, 1.37158052711496e-06, ]
  - [22700, -47836.0333952288, 2108.46045692988, -45727.5729382989, 1398.59041023292, 53.4349, 53.4349, 53.4349, 152572.057499711, -1555.48187096827, -1597.21733709528, -1676.37666907416, -1392.85160673536, -49695.2452714579, 1.65080583583745e-06, ]
  - [22800, -47811.67806928, 2091.79966068785, -45719.8784085921, 1387.53892014006, 53.4349, 53.4349, 53.4349, 152572.057499711, 325.156317649263, -293.350737098804, 866.14628461145, 402.673405435149, -49711.467220178, 1.97328035457892e-06, ]
  - [22900, -47822.9256092017, 2101.62477588811, -45721.3008333136, 1394.05614547068, 53.4349, 53.4349, 53.4349, 152572.057499711, -454.5511406511, 250.583091412865, -1173.7110225326, -440.525490833563, -49750.6251338308, 2.343737350267e-06, ]
  - [23000, -47837.3155958534, 2088.13202270019, -45749.1835731532, 1385.10609134268, 53.4349, 53.4349, 53.4349, 152572.057499711, -2143.03620179122, -2270.776123933, -764.662808435358, -3393.66967300531, -49767.6426977976, 2.76722450631e-06, ]
  - [23100, -47823.1779876524, 2102.19725668072, -45720.9807309717, 1394.43588517315, 53.4349, 53.4349, 53.4349, 152572.057499711, -418.153011715996, -679.840255913302, 471.501609189111, -1046.12038842379, -49748.0626648242, 3.2491114816967e-06, ]
  - [23200, -47813.1683477729, 2108.16989765353, -45704.9984501193, 1398.39767556902, 53.4349, 53.4349, 53.4349, 152572.057499711, 571.555970301173, 316.55388990036, 669.39478489387, 728.719236109277, -49756.2159770851, 3.79509724138202e-06, ]
  - [23300, -47825.9096950989, 2134.7785120007, -45691.1311830982, 1416.04778265698, 53.4349, 53.4349, 53.4349, 152572.057499711, 77.0512255204111, 221.551454181298, 372.561204807845, -362.958982427907, -49788.4749228216, 4.41121716031674e-06, ]
  - [23400, -47832.5018251595, 2118.96942954404, -45713.5323956155, 1405.56125394558, 53.4349, 53.4349, 53.4349, 152572.057499711, -928.86752558395, -82.6822577151037, -750.052851284005, -1953.86746775274, -49819.5891914897, 5.10384990346721e-06, ]
  - [23500, -47827.1029965027, 2094.46235170376, -45732.640644799, 1389.30514445222, 53.4349, 53.4349, 53.4349, 152572.057499711, -1001.55293908228, -1167.78809685814, -671.201920876123, -1165.66879951257, -49791.349677365, 5.87972408415916e-06, ]
  - [23600, -47810.6291631131, 2099.19262736463, -45711.4365357485, 1392.44284530657, 53.4349, 53.4349, 53.4349, 152572.057499711, 806.738045472487, 593.66561035697, 411.724672781531, 1414.82385327896, -49807.1149061954, 6.74592470306796e-06, ]
  - [23700, -47805.6888732698, 2108.91777842226, -45696.7710948475, 1398.89376211772, 53.4349, 53.4349, 53.4349, 152572.057499711, 1659.94768062406, 514.55217188834, 1810.74982289137, 2654.54104709248, -49807.4096867446, 7.70989937016563e-06, ]
  - [23800, -47822.4785769361, 2134.45749332501, -45688.0210836111, 1415.83484357157, 53.4349, 53.4349, 53.4349, 152572.057499711, 906.099168623423, 791.406748963935, 1382.4775262791, 544.413230627238, -49790.1513898546, 8.77946431192315e-06, ]
  - [23900, -47842.7283148549, 2110.66720982741, -45732.0611050275, 1400.05420028414, 53.4349, 53.4349, 53.4349, 152572.057499711, -1790.94739795401, -2730.66360477837, -1330.94669212017, -1311.2318969635, -49766.4560644149, 9.96281016605489e-06, ]
  - [24000, -47821.6700479826, 2104.59480164023, -45717.0752463424, 1396.02623199585, 53.4349, 53.4349, 53.4349, 152572.057499711, -443.220156184284, -500.295816514137, -868.75412327178, 39.3894712330715, -49816.7022452722, 1.126850756608e-05, ]
  - [24100, -47846.1244377709, 2136.95716876108, -45709.1672690098, 1417.49293589296, 53.4349, 53.4349, 53.4349, 152572.057499711, -1776.01402303016, -2124.20384792258, -2310.57415955464, -893.264061613283, -49834.9334343836, 1.2705512517964e-05, ]
  - [24200, -47819.0563679622, 2105.17086837447, -45713.8854995877, 1396.40835033605, 53.4349, 53.4349, 53.4349, 152572.057499711, 210.512203182113, 264.910246988676, 114.127409287065, 252.498953270602, -49833.5887925954, 1.42831715710919e-05, ]
  - [24300, -47812.3646723285, 2131.47566324181, -45680.8890090867, 1413.85692696156, 53.4349, 53.4349, 53.4349, 152572.057499711, 1196.23456589309, 1123.118159743, 817.834629667264, 1647.75090826903, -49812.9192275422, 1.60112267858132e-05, ]
  - [24400, -47817.760731006, 2092.15667148544, -45725.6040595206, 1387.77573362936, 53.4349, 53.4349, 53.4349, 152572.057499711, 320.747829687236, -365.052260800557, 993.540752618221, 333.754997244046, -49783.9515948599, 1.78998204997854e-05, ]
  - [24500, -47836.5697447693, 2069.42296211617, -45767.1467826531, 1372.69594030984, 53.4349, 53.4349, 53.4349, 152572.057499711, -1209.33061481422, -945.320630107071, -1155.145626911, -1527.52558742459, -49768.3593228915, 1.99594998953344e-05, ]
  - [24600, -47819.6152242918, 2079.73127306129, -45739.8839512305, 1379.5336805132, 53.4349, 53.4349, 53.4349, 152572.057499711, -285.213469412066, 13.101867608162, 1413.57418019372, -2282.31645603807, -49792.6420884003, 2.2201221370035e-05, ]
  - [24700, -47807.1562513344, 2134.34996949772, -45672.8062818367, 1415.76352053906, 53.4349, 53.4349, 53.4349, 152572.057499711, 1792.77065980954, 1885.71662951785, 2060.13272940027, 1432.46262051051, -49764.1857339063, 2.46363547127047e-05, ]
  - [24800, -47787.7284519358, 2103.21521320429, -45684.5132387315, 1395.11111919389, 53.4349, 53.4349, 53.4349, 152572.057499711, 3495.0582198949, 3806.40012908755, 4089.84231496228, 2588.93221563487, -49747.4334802804, 2.7276687086994e-05, ]
  - [24900, -47833.033622407, 2127.16669387905, -45705.866928528, 1410.9986882837, 53.4349, 53.4349, 53.4349, 152572.057499711, -1269.02644229358, -983.768652438886, -1011.10690117653, -1812.20377326531, -49755.9841365112, 3.01344268247409e-05, ]
  - [25000, -47844.568001821, 2062.36319305625, -45782.2048087648, 1368.01303280109, 53.4349, 53.4349, 53.4349, 152572.057499711, -2306.91119302192, -2474.23776779064, -2304.09946266603, -2142.39634860908, -49721.0136193533, 3.322220703125e-05, ]
  - [25100, -47844.0392006033, 2067.06900654764, -45776.9701940557, 1371.13450733468, 53.4349, 53.4349, 53.4349, 152572.057499711, -2650.10620614526, -940.299881371378, -3345.67341613779, -3664.34532092662, -49756.0994067042, 3.6553089004642e-05, ]
  - [25200, -47828.0737796545, 2087.04592704044, -45741.027852614, 1384.38565906267, 53.4349, 53.4349, 53.4349, 152572.057499711, -632.998599759975, 357.082809995454, -1918.43680491641, -337.64180435896, -49737.875909447, 4.01405654714096e-05, ]
  - [25300, -47827.650824478, 2106.34481159574, -45721.3060128823, 1397.18705392806, 53.4349, 53.4349, 53.4349, 152572.057499711, -994.420763188427, -1368.61151287154, 344.817779931998, -1959.46855662574, -49723.0707386326, 4.39985636403039e-05, ]
  - [25400, -47845.9956081569, 2080.30063446072, -45765.6949736962, 1379.91135105029, 53.4349, 53.4349, 53.4349, 152572.057499711, -2022.22481106871, -1160.15788288678, -2390.34981943194, -2516.16673088742, -49724.9388783478, 4.81414480766634e-05, ]
  - [25500, -47831.5556284149, 2104.1082676624, -45727.4473607525, 1395.70350279626, 53.4349, 53.4349, 53.4349, 152572.057499711, -1120.92542494044, 175.91375939828, -1168.02975824654, -2370.66027597306, -49720.1744397202, 5.25840233992879e-05, ]
  - [25600, -47827.9093053264, 2137.71941583641, -45690.1898894899, 1417.99855194389, 53.4349, 53.4349, 53.4349, 152572.057499711, -210.564321560656, -204.980240818685, 154.917287925822, -581.630011789099, -49736.3935999776, 5.7341536801945e-05, ]
  - [25700, -47820.656935689, 2120.55609812589, -45700.1008375631, 1406.61372778045, 53.4349, 53.4349, 53.4349, 152572.057499711, 400.456375263167, 1285.04472966597, -817.662742021239, 733.987138144778, -49751.6669399409, 6.24296804015908e-05, ]
  - [25800, -47806.4797631916, 2071.39331586292, -45735.0864473287, 1374.00292135656, 53.4349, 53.4349, 53.4349, 152572.057499711, 1561.5041437133, 1551.77910850615, 1196.56145876359, 1936.17186387015, -49769.9484943255, 6.78645934153687e-05, ]
  - [25900, -47830.4028599062, 2099.33520134425, -45731.0676585619, 1392.53741791284, 53.4349, 53.4349, 53.4349, 152572.057499711, -344.93682601455, -727.484196942908, -546.282389506085, 238.956108405337, -49766.297750242, 7.36628641684442e-05, ]
  - [26000, -47813.7428142223, 2084.34651307792, -45729.3963011444, 1382.59507557373, 53.4349, 53.4349, 53.4349, 152572.057499711, 450.829119269974, 263.418223769947, 1270.18603214622, -181.116898106251, -49742.3550273862, 7.98415319347201e-05, ]
  - [26100, -47810.6184574392, 2128.4534473417, -45682.1650100974, 1411.85222150851, 53.4349, 53.4349, 53.4349, 152572.057499711, 771.933857440363, 664.573007745729, 614.384959722491, 1036.84360485286, -49725.2522647912, 8.64180886124637e-05, ]
  - [26200, -47830.5283886372, 2100.14979497885, -45730.3785936584, 1393.07775664286, 53.4349, 53.4349, 53.4349, 152572.057499711, -666.288508320363, -408.874985183467, -1336.33051469105, -253.660025086573, -49760.0849677407, 9.34104802368714e-05, ]
  - [26300, -47834.1422097294, 2118.61525835331, -45715.5269513761, 1405.32632403294, 53.4349, 53.4349, 53.4349, 152572.057499711, -1278.42703017558, -2005.12643677378, -788.030915078733, -1042.12373867424, -49810.731647414, 0.000100837108331577, ]
  - [26400, -47805.5105187372, 2098.90900468391, -45706.6015140533, 1392.2547118464, 53.4349, 53.4349, 53.4349, 152572.057499711, 1604.72410712149, -11.3020557494742, 2036.64409646143, 2788.83028065251, -49804.0388520214, 0.000108716831101108, ]
  - [26500, -47823.8400256656, 2104.72308245546, -45719.1169432102, 1396.11132361681, 53.4349, 53.4349, 53.4349, 152572.057499711, -572.96786791424, -1382.57722887553, -655.079286175449, 318.752911308261, -49801.603598275, 0.000117068964466276, ]
  - [26600, -47829.2504770795, 2072.70422586982, -45756.5462512097, 1374.87247817386, 53.4349, 53.4349, 53.4349, 152572.057499711, -1688.5197206862, -2746.30537400421, -2454.13890077556, 134.885112721152, -49730.5625411745, 0.000125913282944476, ]
  - [26700, -47827.0203820805, 2122.81845324671, -45704.2019288338, 1408.11440006772, 53.4349, 53.4349, 53.4349, 152572.057499711, -58.1046313291333, -935.255595868989, -36.1458766913188, 797.087578572901, -49670.697669958, 0.000135270020376872, ]
  - [26800, -47828.7772664803, 2115.48938113367, -45713.2878853466, 1403.25285763778, 53.4349, 53.4349, 53.4349, 152572.057499711, -1193.02965375285, -1512.93387537435, -926.954630947171, -1139.20045493702, -49655.1888938919, 0.000145159870504403, ]
  - [26900, -47827.4562286203, 2129.49352465943, -45697.9627039609, 1412.54212876178, 53.4349, 53.4349, 53.4349, 152572.057499711, -60.7910765363765, -1019.28771160662, 125.888697755425, 711.02578424207, -49655.0117100585, 0.000155603987394582, ]
  - [27000, -47796.1221490982, 2095.84613363266, -45700.2760154656, 1390.22303889471, 53.4349, 53.4349, 53.4349, 152572.057499711, 2906.82560499361, 3230.93600076116, 2736.55050081793, 2752.99031340172, -49673.5245699451, 0.00016662398572099, ]
  - [27100, -47821.8888830299, 2122.06596422615, -45699.8229188038, 1407.61525675939, 53.4349, 53.4349, 53.4349, 152572.057499711, 427.062642398863, 1506.9362907831, -184.11495710603, -41.6334064804758, -49658.3210076132, 0.000178241940897419, ]
  - [27200, -47818.3604340494, 2119.13322749858, -45699.2272065508, 1405.66990490352, 53.4349, 53.4349, 53.4349, 152572.057499711, -129.592196212268, 146.930710038647, -580.340149363797, 44.6328506883437, -49630.8282063567, 0.000190480389068545, ]
  - [27300, -47824.6187476769, 2125.74857374976, -45698.8701739271, 1410.05801652158, 53.4349, 53.4349, 53.4349, 152572.057499711, -882.538246686928, -866.940907233581, -1350.08941255248, -430.584420274722, -49628.516826769, 0.000203362326959055, ]
  - [27400, -47831.1417449734, 2118.70859537832, -45712.4331495951, 1405.38823663257, 53.4349, 53.4349, 53.4349, 152572.057499711, -637.677881234065, 645.453242199773, -1195.11024638182, -1363.37663952016, -49607.0730419943, 0.000216911211583103, ]
  - [27500, -47832.9214970385, 2101.52705100331, -45731.3944460352, 1393.99132230254, 53.4349, 53.4349, 53.4349, 152572.057499711, -1782.725840595, -1288.20255959104, -2177.87056599204, -1882.10439620192, -49641.1985700945, 0.000231150959815979, ]
  - [27600, -47824.6055191812, 2098.21968666554, -45726.3858325157, 1391.79747131959, 53.4349, 53.4349, 53.4349, 152572.057499711, -717.326265968382, -1086.07651438311, -752.052408560543, -313.849874961495, -49599.8435339077, 0.00024610594782986, ]
  - [27700, -47838.0893001827, 2128.05152319841, -45710.0377769843, 1411.58561596199, 53.4349, 53.4349, 53.4349, 152572.057499711, -1236.04345327053, -1556.45170606729, -572.730305180497, -1578.94834856382, -49551.4667409927, 0.000261801010395495, ]
  - [27800, -47829.7868236131, 2109.26258063863, -45720.5242429745, 1399.12247737376, 53.4349, 53.4349, 53.4349, 152572.057499711, -648.155756083268, -155.317411522737, 89.0202323564591, -1878.17008908352, -49548.8839791899, 0.000278261440051671, ]
  - [27900, -47820.1824616446, 2128.19123514967, -45691.9912264949, 1411.67829011889, 53.4349, 53.4349, 53.4349, 152572.057499711, 287.461049014269, 492.089912439329, 1118.91856245111, -748.625327847626, -49581.356105232, 0.000295512986144304, ]
  - [28000, -47833.9692946245, 2116.15628798971, -45717.8130066348, 1403.69523232417, 53.4349, 53.4349, 53.4349, 152572.057499711, -1285.96239029294, -1224.60744947947, -711.169500836572, -1922.11022056278, -49579.4210640506, 0.00031358185373696, ]
  - [28100, -47825.5733126542, 2123.13815164851, -45702.4351610057, 1408.32646338503, 53.4349, 53.4349, 53.4349, 152572.057499711, -57.1452124410599, -429.361737781361, 263.705176930712, -5.7790764725336, -49633.9774396616, 0.000332494702394641, ]
  - [28200, -47832.6570265854, 2143.47877003517, -45689.1782565502, 1421.81886430737, 53.4349, 53.4349, 53.4349, 152572.057499711, -1058.0669910807, -904.791772203154, -1513.77164861562, -755.637552423315, -49629.1452756506, 0.000352278644842627, ]
  - [28300, -47826.1725637108, 2108.72559551485, -45717.4469681959, 1398.76628276641, 53.4349, 53.4349, 53.4349, 152572.057499711, 179.904358933232, 202.930399538287, -23.5409902070056, 360.323667468413, -49626.8776895472, 0.000372961245502164, ]
  - [28400, -47819.7227181893, 2146.6225659361, -45673.1001522532, 1423.90421657676, 53.4349, 53.4349, 53.4349, 152572.057499711, 778.65161221511, -862.026371848025, 2123.67708174151, 1074.30412675185, -49635.7397376999, 0.000394570518904788, ]
  - [28500, -47815.781215577, 2084.32868920789, -45731.4525263691, 1382.58325259, 53.4349, 53.4349, 53.4349, 152572.057499711, 164.397239766435, 1099.50038162765, -797.893840964262, 191.58517863592, -49665.9512886642, 0.000417134927987054, ]
  - [28600, -47797.9238694084, 2098.16498486021, -45699.7588845482, 1391.76118635152, 53.4349, 53.4349, 53.4349, 152572.057499711, 2521.9769354128, 2315.51532767278, 2999.86800220181, 2250.54747636383, -49650.8992777135, 0.000440683382267422, ]
  - [28700, -47804.5269645054, 2131.54385986397, -45672.9831046414, 1413.90216335262, 53.4349, 53.4349, 53.4349, 152572.057499711, 1958.71406675859, 1853.31569241549, 1489.24458185636, 2533.58192600394, -49635.6660420788, 0.000465245235907057, ]
  - [28800, -47813.6824941909, 2130.06811302487, -45683.614381166, 1412.92326646589, 53.4349, 53.4349, 53.4349, 152572.057499711, 306.341055956234, 460.916145862166, 592.521302483437, -134.414280476898, -49584.8457597309, 0.000490850285656287, ]
  - [28900, -47818.3349398028, 2125.82896472365, -45692.5059750792, 1410.11134170716, 53.4349, 53.4349, 53.4349, 152572.057499711, -227.209310750297, 209.410512936109, -707.076713111667, -183.961732075327, -49630.5267870095, 0.000517528768688429, ]
  - [29000, -47797.036432366, 2124.76972391348, -45672.2667084525, 1409.40872286773, 53.4349, 53.4349, 53.4349, 152572.057499711, 2270.64216517515, 3116.11064899315, 1113.49945755251, 2582.31638897977, -49666.5224744778, 0.00054531136032273, ]
  - [29100, -47839.642919274, 2121.21829642547, -45718.4246228485, 1407.05297917282, 53.4349, 53.4349, 53.4349, 152572.057499711, -1678.35281292305, -1315.95587516054, -1839.03223388176, -1880.07032972685, -49681.8027183935, 0.000574229171638096, ]
  - [29200, -47823.6045498103, 2091.05653053966, -45732.5480192706, 1387.04598478744, 53.4349, 53.4349, 53.4349, 152572.057499711, -236.726869228349, -285.795110516109, -169.030655872892, -255.354841296047, -49658.6913484273, 0.000604313746979337, ]
  - [29300, -47855.6586517621, 2124.89702503088, -45730.7616267312, 1409.49316463253, 53.4349, 53.4349, 53.4349, 152572.057499711, -2030.04483694487, -2542.75778459881, -1519.72886841997, -2027.64785781584, -49643.9283038152, 0.000635597061357593, ]
  - [29400, -47818.0236816341, 2105.80115839372, -45712.2225232403, 1396.82643623075, 53.4349, 53.4349, 53.4349, 152572.057499711, 1324.94478726863, 1091.73179909826, 1862.76440780663, 1020.338154901, -49640.8941775413, 0.000668111517746635, ]
  - [29500, -47807.1626060944, 2111.01133042487, -45696.1512756695, 1400.28246340664, 53.4349, 53.4349, 53.4349, 152572.057499711, 2011.97762428853, 1912.37405698276, 2255.95036829835, 1867.60844758448, -49645.4478969155, 0.000701889944276683, ]
  - [29600, -47810.5700465832, 2125.83714250514, -45684.7329040781, 1410.11676621807, 53.4349, 53.4349, 53.4349, 152572.057499711, 919.853052004266, 1880.80698576701, -71.3068447122814, 950.059014958065, -49653.234581767, 0.000736965591327429, ]
  - [29700, -47821.6692352953, 2123.81395441656, -45697.8552808787, 1408.77473893485, 53.4349, 53.4349, 53.4349, 152572.057499711, 70.694266991083, -110.64532552722, -425.501923878336, 748.230050378812, -49674.498522598, 0.000773372128521878, ]
  - [29800, -47804.0452921987, 2111.38399445921, -45692.6612977395, 1400.52966004861, 53.4349, 53.4349, 53.4349, 152572.057499711, 2128.21790887326, 1657.3319389241, 2553.44169773508, 2173.88008996059, -49639.0601842655, 0.00081114364162266, ]
  - [29900, -47813.7957347519, 2107.39951374842, -45706.3962210035, 1397.88666217138, 53.4349, 53.4349, 53.4349, 152572.057499711, 614.278814627992, -114.161679767638, 95.4499445657301, 1861.54817908587, -49639.7498400667, 0.000850314629332433, ]
  - [30000, -47825.7866755798, 2119.08994282657, -45706.6967327533, 1405.64119318309, 53.4349, 53.4349, 53.4349, 152572.057499711, -371.373685177812, -777.255713771639, -240.36642839815, -96.4989133636506, -49683.3284259024, 0.000890920000000001, ]
  - [30100, -47831.4311410518, 2110.24109180624, -45721.1900492455, 1399.77154638087, 53.4349, 53.4349, 53.4349, 152572.057499711, -1617.24444985426, -1337.07203588417, -1622.52023259284, -1892.14108108577, -49713.3631191365, 0.000932995068233718, ]
  - [30200, -47836.07953184, 2128.71361452038, -45707.3659173197, 1412.02479639364, 53.4349, 53.4349, 53.4349, 152572.057499711, -809.951109495645, -518.489567449448, -11.8131285253795, -1899.5506325121, -49706.7438611412, 0.000976575551423828, ]
  - [30300, -47818.0688657723, 2117.50124668619, -45700.5676190861, 1404.58737442191, 53.4349, 53.4349, 53.4349, 152572.057499711, -430.854236999062, -684.639714033345, 347.070254133847, -954.993251097686, -49754.9571420154, 0.00102169756617526, ]
  - [30400, -47834.2273338424, 2097.27065134954, -45736.9566824929, 1391.16795432411, 53.4349, 53.4349, 53.4349, 152572.057499711, -1800.02583960541, -2865.87506479405, -1330.52708473109, -1203.67536929108, -49725.4627149314, 0.00106839762465251, ]
  - [30500, -47815.5797037711, 2102.51381756474, -45713.0658862064, 1394.64586730262, 53.4349, 53.4349, 53.4349, 152572.057499711, 355.987027771619, -316.15184386267, 873.225271574871, 510.887655602649, -49721.1389326154, 0.00111671263083812, ]
  - [30600, -47817.1198872777, 2119.92689608185, -45697.1929911958, 1406.19636356477, 53.4349, 53.4349, 53.4349, 152572.057499711, -107.748547216845, -1317.46770384683, -521.665421684822, 1515.88748388112, -49729.0573147427, 0.00116667987670637, ]
  - [30700, -47821.5885556007, 2126.17597342043, -45695.4125821803, 1410.34152057249, 53.4349, 53.4349, 53.4349, 152572.057499711, -342.150446287241, -1318.89524375332, -336.611384690413, 629.055289582016, -49762.21900937, 0.00121833703831365, ]
  - [30800, -47809.3460690917, 2119.13083124436, -45690.2152378473, 1405.66831541287, 53.4349, 53.4349, 53.4349, 152572.057499711, 1576.54735770146, 1641.82787065517, 1829.4199224979, 1258.39427995133, -49786.8967504896, 0.00127172217180712, ]
  - [30900, -47826.6091678683, 2129.04656217058, -45697.5626056977, 1412.24564824275, 53.4349, 53.4349, 53.4349, 152572.057499711, -463.958975513308, -1423.43781806951, 1255.11129508713, -1223.55040355755, -49809.8450519141, 0.00132687370935312, ]
  - [31000, -47825.8917262501, 2112.10440656651, -45713.7873196836, 1401.00752600116, 53.4349, 53.4349, 53.4349, 152572.057499711, -161.90135460509, -154.338230141238, 559.486012465023, -890.851846139054, -49757.093543078, 0.00138383045498687, ]
  - [31100, -47804.7656368102, 2117.60515154744, -45687.1604852628, 1404.65629691084, 53.4349, 53.4349, 53.4349, 152572.057499711, 1340.35103392061, 1990.18144781621, 748.315175828899, 1282.55647811672, -49747.9218930187, 0.00144263158038501, ]
  - [31200, -47840.9709821005, 2120.96190158875, -45720.0090805118, 1406.88290656904, 53.4349, 53.4349, 53.4349, 152572.057499711, -1608.09536445869, -1651.26519693215, -1364.08998246753, -1808.9309139764, -49708.897097106, 0.00150331662056234, ]
  - [31300, -47802.7059858082, 2099.05273433156, -45703.6532514766, 1392.35005103392, 53.4349, 53.4349, 53.4349, 152572.057499711, 2120.20090854918, 1751.48188640833, 1671.61928568993, 2937.50155354926, -49636.9773323368, 0.00156592546949443, ]
  - [31400, -47815.1776531531, 2112.20608284151, -45702.9715703116, 1401.07497021748, 53.4349, 53.4349, 53.4349, 152572.057499711, 216.144378750068, 1480.18568903694, -514.772439253249, -316.980113533491, -49666.3180244658, 0.00163049837566735, ]
  - [31500, -47796.4415574453, 2111.4547663395, -45684.9867911058, 1400.57660466773, 53.4349, 53.4349, 53.4349, 152572.057499711, 2845.94385830622, 1982.62954640063, 4141.07272828516, 2414.12930023287, -49623.1271466591, 0.00169707593755625, ]
  - [31600, -47830.2153714316, 2105.76051981885, -45724.4548516128, 1396.79947972753, 53.4349, 53.4349, 53.4349, 152572.057499711, -726.8577190902, -788.989943144429, -1100.96234253177, -290.620871594402, -49654.5369357746, 0.00176569909903396, ]
  - [31700, -47836.1317069161, 2103.11886711508, -45733.012839801, 1395.04721061264, 53.4349, 53.4349, 53.4349, 152572.057499711, -827.540678191362, -521.048725845721, -1480.45821576536, -481.115092963004, -49664.1380262996, 0.0018364091447113, ]
[...]
  - [232600, -47814.9951190328, 2147.80031546582, -45667.1948035669, 1424.68544498088, 53.4349, 53.4349, 53.4349, 152572.057499711, 1080.6580727416, 33.587056458242, 1479.40546645572, 1728.98169531085, -49567.3861345456, 0.000216911211583102, ]
  - [232700, -47828.9294365213, 2123.80244215982, -45705.1269943615, 1408.76710258966, 53.4349, 53.4349, 53.4349, 152572.057499711, -537.495594915244, -1238.55819450998, 445.226125148741, -819.154715384501, -49583.7619215158, 0.000203362326959055, ]
  - [232800, -47838.3246866968, 2126.4812094781, -45711.8434772187, 1410.54399068366, 53.4349, 53.4349, 53.4349, 152572.057499711, -1822.10803086339, -1951.63174133219, -1053.96369742759, -2460.72865383039, -49569.6274856638, 0.000190480389068545, ]
  - [232900, -47813.2030510857, 2114.01047979718, -45699.1925712885, 1402.27186830024, 53.4349, 53.4349, 53.4349, 152572.057499711, 852.81483169547, 223.891711534284, 2272.57458630179, 61.9781972503286, -49552.7065058482, 0.000178241940897418, ]
  - [233000, -47837.1066760828, 2143.52344030201, -45693.5832357808, 1421.84849512479, 53.4349, 53.4349, 53.4349, 152572.057499711, -1440.09805804557, -2606.0433497618, -724.243891428431, -990.006932946478, -49572.2113115916, 0.000166623985720989, ]
  - [233100, -47802.8529794227, 2142.81162997392, -45660.0413494488, 1421.3763349306, 53.4349, 53.4349, 53.4349, 152572.057499711, 1838.61314224425, 1138.51823159015, 1622.4591628768, 2754.86203226578, -49526.0595531182, 0.000155603987394581, ]
  - [233200, -47827.5934718596, 2120.24050401266, -45707.3529678469, 1406.40438693232, 53.4349, 53.4349, 53.4349, 152572.057499711, -125.393996600607, 855.335058239102, -281.296146602287, -950.220901438633, -49514.6350021702, 0.000145159870504403, ]
  - [233300, -47842.6616167812, 2117.96522108226, -45724.696395699, 1404.89513933104, 53.4349, 53.4349, 53.4349, 152572.057499711, -2424.06840665657, -1622.54108050891, -2721.03937188566, -2928.62476757515, -49497.3595509952, 0.000135270020376871, ]
  - [233400, -47827.3969968931, 2109.09100713593, -45718.3059897572, 1399.00866871553, 53.4349, 53.4349, 53.4349, 152572.057499711, -1175.02308194537, -1030.62306851035, -606.827933676941, -1887.6182436488, -49509.5887151442, 0.000125913282944476, ]
  - [233500, -47813.0965438808, 2085.0059161284, -45728.0906277524, 1383.03247281297, 53.4349, 53.4349, 53.4349, 152572.057499711, 446.062313612026, -915.512557090052, 1389.98938916248, 863.710108763655, -49531.1947649778, 0.000117068964466275, ]
  - [233600, -47820.8189348492, 2125.94708203137, -45694.8718528178, 1410.18969163936, 53.4349, 53.4349, 53.4349, 152572.057499711, -205.970867143498, -828.481162502717, 295.166032870001, -84.5974717977783, -49569.7017780282, 0.000108716831101108, ]
  - [233700, -47826.4572651715, 2103.90021637224, -45722.5570487992, 1395.56549758099, 53.4349, 53.4349, 53.4349, 152572.057499711, -978.943197676816, -1924.95035919627, -364.697744990834, -647.181488843338, -49563.9524580287, 0.000100837108331576, ]
  - [233800, -47812.7430507952, 2106.52913397848, -45706.2139168167, 1397.30931921221, 53.4349, 53.4349, 53.4349, 152572.057499711, 1372.42392422667, 3277.67530361008, 734.455037326207, 105.141431743724, -49540.4011591968, 9.34104802368709e-05, ]
  - [233900, -47849.1587072424, 2105.3144428532, -45743.8442643892, 1396.50358659644, 53.4349, 53.4349, 53.4349, 152572.057499711, -2157.68117689215, -1741.3603173713, -1881.15391316329, -2850.52930014188, -49544.4468292949, 8.64180886124633e-05, ]
  - [234000, -47819.877407794, 2102.87796884558, -45716.9994389484, 1394.88741723901, 53.4349, 53.4349, 53.4349, 152572.057499711, 569.372568202559, 286.380815301011, 1297.97716516369, 123.759724142977, -49533.5637297992, 7.98415319347196e-05, ]
  - [234100, -47810.9833585619, 2081.0252145339, -45729.958144028, 1380.39198171067, 53.4349, 53.4349, 53.4349, 152572.057499711, 884.169014197872, 1841.10033901135, -80.7854241063238, 892.192127688601, -49552.4409686435, 7.36628641684439e-05, ]
  - [234200, -47838.8150570856, 2074.19555595974, -45764.6195011259, 1375.86171178998, 53.4349, 53.4349, 53.4349, 152572.057499711, -1904.38007373024, -1027.98701832495, -2176.94098798735, -2508.21221487843, -49594.5474804423, 6.78645934153684e-05, ]
  - [234300, -47803.9227239076, 2098.03841691658, -45705.884306991, 1391.67723091777, 53.4349, 53.4349, 53.4349, 152572.057499711, 1728.67939013476, 2135.89684037622, 1383.14945190574, 1666.99187812231, -49605.2091370914, 6.24296804015905e-05, ]
  - [234400, -47803.0753261287, 2096.0152131518, -45707.0601129769, 1390.33519323617, 53.4349, 53.4349, 53.4349, 152572.057499711, 2839.49726846197, 2351.55102025314, 2530.79291580749, 3636.14786932529, -49602.1947540487, 5.73415368019447e-05, ]
  - [234500, -47810.0807441335, 2105.80859189753, -45704.272152236, 1396.83136704513, 53.4349, 53.4349, 53.4349, 152572.057499711, 1019.7471535497, 1479.61811776267, 1262.05339695047, 317.569945935946, -49625.1441736156, 5.25840233992875e-05, ]
  - [234600, -47809.6540175997, 2110.70853556427, -45698.9454820354, 1400.08161259774, 53.4349, 53.4349, 53.4349, 152572.057499711, 1461.50641610373, 2163.51149768531, 838.960830147528, 1382.04692047836, -49635.3795560121, 4.81414480766631e-05, ]
  - [234700, -47806.2171725283, 2126.66090564964, -45679.5562668787, 1410.66318729532, 53.4349, 53.4349, 53.4349, 152572.057499711, 2094.60014167872, 1436.93719979583, 2617.19808947702, 2229.66513576331, -49594.1577200127, 4.39985636403036e-05, ]
  - [234800, -47805.6318432907, 2125.77059952461, -45679.8612437661, 1410.07262672562, 53.4349, 53.4349, 53.4349, 152572.057499711, 1725.22087969306, 1774.9105877061, 1977.15896236885, 1423.59308900425, -49599.1879802211, 4.01405654714093e-05, ]
  - [234900, -47818.9741020723, 2104.15086476567, -45714.8232373066, 1395.7317584365, 53.4349, 53.4349, 53.4349, 152572.057499711, -50.2933451238101, -283.348411375871, 86.2680555238753, 46.2003204805704, -49607.2021968994, 3.65530890046418e-05, ]
  - [235000, -47816.1132707805, 2109.09942903331, -45707.0138417472, 1399.01425515414, 53.4349, 53.4349, 53.4349, 152572.057499711, 481.844938254208, 911.739508181713, 428.031005502115, 105.764301078793, -49609.4037496133, 3.32222070312498e-05, ]
  - [235100, -47798.0161515142, 2091.78165731694, -45706.2344941972, 1387.52697808925, 53.4349, 53.4349, 53.4349, 152572.057499711, 2405.49567909968, 2745.36972387867, 2453.9669206376, 2017.15039278276, -49628.6035222385, 3.01344268247407e-05, ]
  - [235200, -47850.9868855715, 2119.44006433936, -45731.5468212321, 1405.87343685102, 53.4349, 53.4349, 53.4349, 152572.057499711, -2845.32486853528, -1321.70824220201, -3022.75155094776, -4191.51481245605, -49610.2071902281, 2.72766870869938e-05, ]
  - [235300, -47826.8477286905, 2111.4550223644, -45715.3927063261, 1400.57677449495, 53.4349, 53.4349, 53.4349, 152572.057499711, -532.441019901264, -330.19971549541, -634.104865804688, -633.018478403698, -49585.7024909648, 2.46363547127045e-05, ]
  - [235400, -47822.6366973129, 2107.75226985346, -45714.8844274595, 1398.12065342507, 53.4349, 53.4349, 53.4349, 152572.057499711, -229.356533655118, -869.51124174961, 350.647917890138, -169.206277105877, -49596.933634874, 2.22012213700348e-05, ]
  - [235500, -47814.8404229196, 2096.79384711831, -45718.0465758012, 1390.85167908965, 53.4349, 53.4349, 53.4349, 152572.057499711, -0.578490957010261, -1010.66172114918, 459.370621040043, 549.555627238112, -49609.1182549061, 1.99594998953343e-05, ]
  - [235600, -47844.4412322042, 2104.65161603598, -45739.7896161682, 1396.06391829384, 53.4349, 53.4349, 53.4349, 152572.057499711, -1562.95534484804, -1387.97584102671, -2182.10634312902, -1118.78385038838, -49612.9043988958, 1.78998204997852e-05, ]
  - [235700, -47846.7990273285, 2081.30658855089, -45765.4924387776, 1380.57862358036, 53.4349, 53.4349, 53.4349, 152572.057499711, -2384.48782824272, -1932.96697734649, -3242.94697051159, -1977.54953687007, -49634.8065861163, 1.6011226785813e-05, ]
  - [235800, -47831.7476508195, 2128.76345868814, -45702.9841921314, 1412.05785917877, 53.4349, 53.4349, 53.4349, 152572.057499711, -1203.60192484782, -230.700917330453, -2507.82172548704, -872.283131725964, -49689.8050559182, 1.42831715710918e-05, ]
  - [235900, -47819.349783032, 2074.55132087293, -45744.7984621591, 1376.09769885545, 53.4349, 53.4349, 53.4349, 152572.057499711, -329.118293545652, 787.041567347378, -1395.86608061137, -378.530367372963, -49700.4831261819, 1.27055125179639e-05, ]
  - [236000, -47842.5669006515, 2102.22665624626, -45740.3402444052, 1394.45538658249, 53.4349, 53.4349, 53.4349, 152572.057499711, -2780.40015550032, -1821.20223554169, -3541.69613941815, -2978.30209154111, -49693.6930246057, 1.12685075660799e-05, ]
  - [236100, -47840.7777362551, 2118.03259503033, -45722.7451412248, 1404.93983002342, 53.4349, 53.4349, 53.4349, 152572.057499711, -1907.55250670982, -1402.72730992036, -2632.41193258143, -1687.51827762767, -49673.8523731381, 9.96281016605479e-06, ]
  - [236200, -47824.8672226606, 2110.29172989756, -45714.575492763, 1399.80513579379, 53.4349, 53.4349, 53.4349, 152572.057499711, -139.09357051343, -133.182005370041, 581.729330277192, -865.828036447442, -49672.6682053992, 8.77946431192305e-06, ]
  - [236300, -47824.7824925837, 2131.16607884892, -45693.6164137348, 1413.65157249943, 53.4349, 53.4349, 53.4349, 152572.057499711, -215.402097667576, -503.84433330553, 378.841354877285, -521.203314574477, -49717.6921622015, 7.70989937016554e-06, ]
  - [236400, -47825.8856239243, 2099.90545441311, -45725.9801695112, 1392.91567991481, 53.4349, 53.4349, 53.4349, 152572.057499711, 118.781854029042, 81.2335739124059, -536.264815171243, 811.376803345957, -49729.9718472384, 6.74592470306788e-06, ]
  - [236500, -47810.0811323998, 2105.39569312581, -45704.685439274, 1396.55748177467, 53.4349, 53.4349, 53.4349, 152572.057499711, 1138.24826686564, 1601.03761710423, 1394.40845461616, 419.298728876532, -49760.2242815473, 5.87972408415909e-06, ]
  - [236600, -47827.8490798054, 2122.11462644206, -45705.7344533633, 1407.64753552861, 53.4349, 53.4349, 53.4349, 152572.057499711, -988.073453564389, -1406.23950030823, 144.413058025236, -1702.39391841017, -49755.3953456744, 5.10384990346715e-06, ]
  - [236700, -47807.4426455584, 2103.68502074196, -45703.7576248165, 1395.42275336027, 53.4349, 53.4349, 53.4349, 152572.057499711, 1601.96038291305, 1885.40924829237, 1793.33573661344, 1127.13616383336, -49760.7402056512, 4.41121716031669e-06, ]
  - [236800, -47816.2895515362, 2124.76519634685, -45691.5243551893, 1409.40571962844, 53.4349, 53.4349, 53.4349, 152572.057499711, -357.641269159132, -1076.57190008614, 173.951781974865, -170.303689366129, -49789.3681226552, 3.79509724138197e-06, ]
  - [236900, -47812.3402115118, 2100.98739117273, -45711.3528203391, 1393.63335350053, 53.4349, 53.4349, 53.4349, 152572.057499711, 803.410314070812, 446.330244546079, 1154.69916507007, 809.201532596288, -49799.1156901257, 3.24911148169665e-06, ]
  - [237000, -47841.3347538273, 2112.88130944968, -45728.4534443777, 1401.52286358718, 53.4349, 53.4349, 53.4349, 152572.057499711, -1975.9510500191, -1684.25984911004, -1937.55714786844, -2306.03615307881, -49791.5092389042, 2.76722450630996e-06, ]
  - [237100, -47816.3129786549, 2131.24540954434, -45685.0675691106, 1413.70419437787, 53.4349, 53.4349, 53.4349, 152572.057499711, 340.492793817233, 821.437644797414, 786.411194054783, -586.370457400496, -49801.751033859, 2.34373735026696e-06, ]
  - [237200, -47816.8569694581, 2127.46929551059, -45689.3876739475, 1411.19941091931, 53.4349, 53.4349, 53.4349, 152572.057499711, 247.456613076619, -727.688620355754, 1106.91501467255, 363.143444913046, -49844.0877977725, 1.97328035457889e-06, ]
  - [237300, -47826.1657349639, 2114.15127282764, -45712.0144621363, 1402.36525956189, 53.4349, 53.4349, 53.4349, 152572.057499711, -21.378977884715, -286.851122120282, -44.0118400653546, 266.726028531492, -49833.9540284916, 1.65080583583743e-06, ]
  - [237400, -47797.313859278, 2127.9190367618, -45669.3948225162, 1411.49773465546, 53.4349, 53.4349, 53.4349, 152572.057499711, 2965.55439001127, 3174.96839598446, 3202.90138932119, 2518.79338472817, -49803.0953230651, 1.37158052711493e-06, ]
  - [237500, -47813.4592365653, 2130.63019999651, -45682.8290365688, 1413.29611170738, 53.4349, 53.4349, 53.4349, 152572.057499711, 847.851201812939, 672.222620485285, 948.341965482242, 922.9890194713, -49785.7531850594, 1.13117778778074e-06, ]
  - [237600, -47836.5039805618, 2117.07917507845, -45719.4248054834, 1404.30740459792, 53.4349, 53.4349, 53.4349, 152572.057499711, -1711.87346068221, -1855.54498614324, -1715.59034584643, -1564.48505005696, -49766.8726804269, 9.25469579851505e-07, ]
  - [237700, -47812.6558892853, 2098.2794063068, -45714.3764829785, 1391.83708473386, 53.4349, 53.4349, 53.4349, 152572.057499711, -350.854477167128, -2017.33379376484, 675.123181170593, 289.647181092866, -49784.0336947867, 7.50618208481688e-07, ]
  - [237800, -47842.567983448, 2128.81062048599, -45713.757362962, 1412.08914268612, 53.4349, 53.4349, 53.4349, 152572.057499711, -1595.54982599478, -1478.82186147949, -1006.39950594036, -2301.42811056448, -49796.6201544017, 6.03067824188189e-07, ]
  - [237900, -47820.7789828947, 2096.53190099999, -45724.2470818948, 1390.67792419286, 53.4349, 53.4349, 53.4349, 152572.057499711, -395.744932767182, 292.181092411157, -739.826563593908, -739.589327118793, -49854.0241387902, 4.79535684391034e-07, ]
  - [238000, -47819.2542022988, 2099.80548712794, -45719.4487151709, 1392.84936931082, 53.4349, 53.4349, 53.4349, 152572.057499711, 10.1037630291973, -1264.37572497609, -290.42291845953, 1585.10993252321, -49811.7987510708, 3.77003171839991e-07, ]
  - [238100, -47804.5049349524, 2085.78570868908, -45718.7192262633, 1383.54972718866, 53.4349, 53.4349, 53.4349, 152572.057499711, 1808.26142812988, 1533.3517273114, 2597.77555261072, 1293.65700446751, -49774.9457855029, 2.92706567484834e-07, ]
  - [238200, -47826.8412283523, 2130.38213814983, -45696.4590902025, 1413.13156656793, 53.4349, 53.4349, 53.4349, 152572.057499711, -30.3193331608538, 446.364948957925, 789.920821828307, -1327.24377026879, -49784.7389092213, 2.24127575334843e-07, ]
  - [238300, -47807.2546517686, 2108.53141017979, -45698.7232415888, 1398.63747515869, 53.4349, 53.4349, 53.4349, 152572.057499711, 1817.51867132283, 1492.92241606289, 2540.21029303343, 1419.42330487217, -49741.048793617, 1.68983596840973e-07, ]
  - [238400, -47843.9116557879, 2090.13534381026, -45753.7763119776, 1386.43494040122, 53.4349, 53.4349, 53.4349, 152572.057499711, -2353.40174632205, -2545.70795810332, -1831.57704971698, -2682.92023114586, -49759.0152599021, 1.25217752321901e-07, ]
  - [238500, -47836.8443021951, 2116.1565214943, -45720.6877807008, 1403.69538721314, 53.4349, 53.4349, 53.4349, 152572.057499711, -1164.67550558205, -783.960487994705, -1497.27058284751, -1212.79544590394, -49759.1861649399, 9.09886469429854e-08, ]
  - [238600, -47828.3033472535, 2082.56165118161, -45745.7416960719, 1381.41113554604, 53.4349, 53.4349, 53.4349, 152572.057499711, -166.628303596707, 895.728801855734, -788.743380029013, -606.870332616849, -49767.4055759845, 6.46598787448784e-08, ]
  - [238700, -47824.4914209304, 2086.37376157086, -45738.1176593596, 1383.93979621674, 53.4349, 53.4349, 53.4349, 152572.057499711, -259.836992417022, 624.579028484898, -332.391529618644, -1071.69847611731, -49759.3850641361, 4.47892862063161e-08, ]
  - [238800, -47821.900526648, 2102.39180839323, -45719.5087182548, 1394.56493580747, 53.4349, 53.4349, 53.4349, 152572.057499711, 194.875476112721, 457.589907016463, 221.105870294569, -94.0693489728653, -49768.4525182641, 3.01179328132691e-08, ]
  - [238900, -47843.7529342111, 2105.86265114714, -45737.890283064, 1396.86722579119, 53.4349, 53.4349, 53.4349, 152572.057499711, -2886.48289204796, -3004.10573340727, -1681.29739538921, -3974.0455473474, -49817.4806134049, 1.95588260943479e-08, ]
  - [239000, -47816.5796319028, 2101.11992632809, -45715.4597055747, 1393.72126712334, 53.4349, 53.4349, 53.4349, 152572.057499711, 116.772513081258, -193.286915512516, 675.191227380215, -131.58677262392, -49802.6007739323, 1.21853685699994e-08, ]
  - [239100, -47841.482787753, 2129.08647203825, -45712.3963157148, 1412.27212137769, 53.4349, 53.4349, 53.4349, 152572.057499711, -1248.33830018982, -908.335220409401, -422.924963909084, -2413.75471625098, -49797.856664036, 7.21953805066191e-09, ]
  - [239200, -47798.5404529272, 2084.32533840724, -45714.21511452, 1382.58102992671, 53.4349, 53.4349, 53.4349, 152572.057499711, 976.086907787823, 647.510319236299, 359.522072664446, 1921.22833146274, -49852.1887177867, 4.01979470665194e-09, ]
  - [239300, -47830.0071266696, 2131.64198934285, -45698.3651373267, 1413.96725489734, 53.4349, 53.4349, 53.4349, 152572.057499711, -791.284497378804, -1804.28278858492, 138.583070414665, -708.153773966166, -49864.857967424, 2.06871232013228e-09, ]
  - [239400, -47830.0626136027, 2112.75312889399, -45717.3094847087, 1401.43783847069, 53.4349, 53.4349, 53.4349, 152572.057499711, -78.2605075565436, 125.659607361312, -405.489312669002, 45.0481826380597, -49869.9036633122, 9.60331117066315e-10, ]
  - [239500, -47824.008041378, 2112.50515825919, -45711.5028831188, 1401.27335383418, 53.4349, 53.4349, 53.4349, 152572.057499711, -186.474615081924, -659.847557632696, 442.083172573509, -341.659460186577, -49851.750136774, 3.87229564589803e-10, ]
  - [239600, -47815.3942683932, 2089.64543876954, -45725.7488296237, 1386.10997509793, 53.4349, 53.4349, 53.4349, 152572.057499711, 429.883768713269, -775.072998277664, 1502.73426897423, 561.990035443236, -49910.1607717608, 1.27312506734493e-10, ]
  - [239700, -47836.1612900672, 2123.73315222755, -45712.4281378397, 1408.72114098081, 53.4349, 53.4349, 53.4349, 152572.057499711, -1637.95777521871, -1634.20166988705, -1902.68182931913, -1376.98982644994, -49979.2752774944, 3.03129989146573e-11, ]
  - [239800, -47824.923438123, 2110.11691309507, -45714.8065250279, 1399.68917578007, 53.4349, 53.4349, 53.4349, 152572.057499711, -67.4128097895007, -231.891345977895, -838.681207434758, 868.334124044154, -49962.4297573724, 4.00518903939475e-12, ]
  - [239900, -47821.1467388337, 2100.25920854904, -45720.8875302847, 1393.15033318539, 53.4349, 53.4349, 53.4349, 152572.057499711, -750.191063909396, 149.960437389814, -1892.57280197396, -507.960827144035, -49946.6713432034, 1.25580539685001e-13, ]
  - [240000, -47836.2103427875, 2116.4502096497, -45719.7601331378, 1403.89019733462, 53.4349, 53.4349, 53.4349, 152572.057499711, -1547.34088155444, -1631.07464568731, -992.725453249652, -2018.22254572634, -49977.8931202996, 0, ]
...
Loop time of 132.869 on 64 procs for 100000 steps with 11664 atoms

Performance: 65.026 ns/day, 0.369 hours/ns, 752.620 timesteps/s, 8.779 Matom-step/s
71.0% CPU use with 64 MPI tasks x 1 OpenMP threads

MPI task timing breakdown:
Section |  min time  |  avg time  |  max time  |%varavg| %total
---------------------------------------------------------------
Pair    | 65.954     | 67.612     | 69.68      |   9.2 | 50.89
Neigh   | 0.54598    | 0.55538    | 0.57653    |   0.9 |  0.42
Comm    | 18.692     | 20.936     | 22.721     |  17.0 | 15.76
Output  | 0.34785    | 0.39178    | 0.393      |   0.9 |  0.29
Modify  | 12.889     | 13.963     | 42.354     |  96.1 | 10.51
Other   |            | 29.41      |            |       | 22.14

Nlocal:         182.25 ave         192 max         168 min
Histogram: 1 0 1 9 10 12 10 9 8 4
Nghost:        1269.25 ave        1283 max        1258 min
Histogram: 1 6 13 7 9 8 12 6 1 1
Neighs:        7057.89 ave        7677 max        6316 min
Histogram: 1 0 2 8 15 15 12 8 1 2

Total # of neighbors = 451705
Ave neighs/atom = 38.726423
Neighbor list builds = 1484
Dangerous builds = 0
#------------------------------------------------------------------------------#
Total wall time: 0:05:28
