LAMMPS (2 Aug 2023)
OMP_NUM_THREADS environment is not set. Defaulting to 1 thread. (src/comm.cpp:98)
  using 1 OpenMP thread(s) per MPI task
#--------------------------- Simulation variables -----------------------------#
# Initalizes the random number generator.
variable RND equal round(random(0,999,${RANDOM}))
variable RND equal round(random(0,999,1))

# Simulation control parameters.
variable t_eq equal 20000 # Equilibration time.
variable t equal 100000 # Switching time.

#---------------------------- Atomic setup ------------------------------------#
units            metal
# Create atoms.
lattice          bcc ${a}
lattice          bcc 2.925261111111111
Lattice spacing in x,y,z = 2.9252611 2.9252611 2.9252611
region           sim_box block 0 18 0 18 0 18
create_box       1 sim_box
Created orthogonal box = (0 0 0) to (52.6547 52.6547 52.6547)
  4 by 4 by 4 MPI processor grid
create_atoms     1 box
Created 11664 atoms
  using lattice units in orthogonal box = (0 0 0) to (52.6547 52.6547 52.6547)
  create_atoms CPU = 0.003 seconds

# Define interatomic potential.
pair_style       eam
pair_coeff       * * ../Fe.eam
#----------------------------- Run simulation ---------------------------------#
# Initial temperature to accelerate equilibration.
velocity all create ${T} ${RND} mom yes rot yes dist gaussian
velocity all create 600 ${RND} mom yes rot yes dist gaussian
velocity all create 600 80 mom yes rot yes dist gaussian

# Integrator, Frenkel-Ladd modifier, and thermostat.
fix fe all nve
fix fti all ti/spring ${k} ${t} ${t_eq} function 2
fix fti all ti/spring 4.365773372137206 ${t} ${t_eq} function 2
fix fti all ti/spring 4.365773372137206 100000 ${t_eq} function 2
fix fti all ti/spring 4.365773372137206 100000 20000 function 2
fix ft all langevin ${T} ${T} 0.1 ${RND} zero yes
fix ft all langevin 600 ${T} 0.1 ${RND} zero yes
fix ft all langevin 600 600 0.1 ${RND} zero yes
fix ft all langevin 600 600 0.1 178 zero yes
compute tcom all temp/com
fix_modify ft temp tcom

# Setup thermo output.
variable dE equal pe-f_fti
variable lambda equal f_fti[1]

thermo_style custom step pe ke etotal temp lx ly lz vol press pxx pyy pzz v_dE v_lambda
thermo 100
thermo_modify line yaml
thermo_modify flush yes

# Forward integration.
run ${t_eq}
run 20000

CITE-CITE-CITE-CITE-CITE-CITE-CITE-CITE-CITE-CITE-CITE-CITE-CITE

Your simulation uses code contributions which should be cited:

- ti/spring command: doi:10.1016/j.commatsci.2015.10.050

@article{freitas2016,
  author={Freitas, Rodrigo and Asta, Mark and de Koning, Maurice},
  title={Nonequilibrium Free-Energy Calculation of Solids Using {LAMMPS}},
  journal={Computational Materials Science},
  volume={112},
  pages={333--341},
  year={2016},
  publisher={Elsevier}
}

CITE-CITE-CITE-CITE-CITE-CITE-CITE-CITE-CITE-CITE-CITE-CITE-CITE

Neighbor list info ...
  update: every = 1 steps, delay = 0 steps, check = yes
  max neighbors/atom: 2000, page size: 100000
  master list distance cutoff = 6.409104
  ghost atom cutoff = 6.409104
  binsize = 3.204552, bins = 17 17 17
  1 neighbor lists, perpetual/occasional/extra = 1 0 0
  (1) pair eam, perpetual
      attributes: half, newton on
      pair build: half/bin/atomonly/newton
      stencil: half/bin/3d
      bin: standard
Per MPI rank memory allocation (min/avg/max) = 3.724 | 3.732 | 3.736 Mbytes
---
keywords: ['Step', 'PotEng', 'KinEng', 'TotEng', 'Temp', 'Lx', 'Ly', 'Lz', 'Volume', 'Press', 'Pxx', 'Pyy', 'Pzz', 'v_dE', 'v_lambda', ]
data:
  - [0, -49818.5592815764, 904.536642681, -48914.0226388954, 600, 52.6547, 52.6547, 52.6547, 145986.073631469, -82720.8682470276, -82648.0910694861, -82766.7569863382, -82747.7566852586, -49818.5592815764, 0, ]
  - [100, -49213.7783190975, 762.885033298094, -48450.8932857994, 506.039223156472, 52.6547, 52.6547, 52.6547, 145986.073631469, -11164.5830884184, -11230.3781132912, -10761.0192543441, -11502.35189762, -49213.7783190975, 0, ]
  - [200, -49160.535922886, 872.097978997839, -48288.4379438882, 578.482686834876, 52.6547, 52.6547, 52.6547, 145986.073631469, -4057.696196488, -4085.97348396955, -4201.92558663256, -3885.18951886189, -49160.535922886, 0, ]
  - [300, -49121.9168864275, 879.369528671402, -48242.5473577561, 583.30607330511, 52.6547, 52.6547, 52.6547, 145986.073631469, -119.513202230163, -230.97626095664, -17.6899196747121, -109.873426059139, -49121.9168864275, 0, ]
  - [400, -49123.1099299194, 897.326734617388, -48225.7831953021, 595.217501830169, 52.6547, 52.6547, 52.6547, 145986.073631469, -148.07241340684, -193.2837020747, -341.57200176012, 90.6384636143005, -49123.1099299194, 0, ]
  - [500, -49120.7432908401, 900.767699289212, -48219.9755915509, 597.499972993498, 52.6547, 52.6547, 52.6547, 145986.073631469, 737.400696104758, 575.672504432574, 651.597027089639, 984.932556792059, -49120.7432908401, 0, ]
  - [600, -49130.4403444378, 903.684586930022, -48226.7557575077, 599.434811784881, 52.6547, 52.6547, 52.6547, 145986.073631469, -541.290280696704, -810.561412219966, -617.021773319184, -196.287656550959, -49130.4403444378, 0, ]
  - [700, -49132.9792026085, 897.105606496389, -48235.8735961121, 595.070822451646, 52.6547, 52.6547, 52.6547, 145986.073631469, -919.045478252818, -718.125491809441, -1121.56816179293, -917.44278115608, -49132.9792026085, 0, ]
  - [800, -49118.6201566478, 902.764339873897, -48215.8558167739, 598.824390705599, 52.6547, 52.6547, 52.6547, 145986.073631469, 500.580068248772, 435.77353253402, 668.475883454137, 397.490788758158, -49118.6201566478, 0, ]
  - [900, -49131.1028331402, 911.57091435097, -48219.5319187892, 604.665994502414, 52.6547, 52.6547, 52.6547, 145986.073631469, -339.216957480185, -381.741881983665, -327.215037084092, -308.69395337279, -49131.1028331402, 0, ]
  - [1000, -49123.0069261777, 905.326239490658, -48217.680686687, 600.523757759985, 52.6547, 52.6547, 52.6547, 145986.073631469, 269.125676101396, 290.674449535968, 395.652463368005, 121.050115400213, -49123.0069261777, 0, ]
  - [1100, -49119.935708752, 902.418945067993, -48217.516763684, 598.595282371272, 52.6547, 52.6547, 52.6547, 145986.073631469, 266.554117978123, 130.833557171472, 78.929187291829, 589.899609471064, -49119.935708752, 0, ]
  - [1200, -49123.7533857643, 911.571547454403, -48212.1818383099, 604.666414454511, 52.6547, 52.6547, 52.6547, 145986.073631469, 263.470508881905, 146.008825150091, 394.761281680704, 249.641419814929, -49123.7533857643, 0, ]
  - [1300, -49117.24905297, 919.522941410043, -48197.7261115599, 609.940757303955, 52.6547, 52.6547, 52.6547, 145986.073631469, 1236.93433948059, 1409.82405986278, 1375.08810210818, 925.890856470794, -49117.24905297, 0, ]
  - [1400, -49123.8307069565, 900.036455511249, -48223.7942514452, 597.014922144174, 52.6547, 52.6547, 52.6547, 145986.073631469, -60.979457629432, -102.276563343998, -35.580487971402, -45.0813215728943, -49123.8307069565, 0, ]
  - [1500, -49120.482928575, 903.660715596428, -48216.8222129785, 599.418977379197, 52.6547, 52.6547, 52.6547, 145986.073631469, 443.746457629319, 640.747636397344, 153.66703971953, 536.824696771082, -49120.482928575, 0, ]
  - [1600, -49122.1733741898, 897.743126877647, -48224.4302473121, 595.493704412095, 52.6547, 52.6547, 52.6547, 145986.073631469, 207.88325578251, -32.5708414188208, 307.435380731658, 348.785228034697, -49122.1733741898, 0, ]
  - [1700, -49127.6177433575, 899.653953307087, -48227.9637900504, 596.761199617448, 52.6547, 52.6547, 52.6547, 145986.073631469, -110.923898745455, 224.611079565682, -557.049198525481, -0.333577276559992, -49127.6177433575, 0, ]
  - [1800, -49127.404670924, 907.03562825068, -48220.3690426733, 601.657634717112, 52.6547, 52.6547, 52.6547, 145986.073631469, -291.163199229742, -67.6509491713451, -642.908338648208, -162.930309869675, -49127.404670924, 0, ]
  - [1900, -49114.8219531119, 902.030298771607, -48212.7916543403, 598.337484326585, 52.6547, 52.6547, 52.6547, 145986.073631469, 1038.7794409556, 1204.02851200445, 869.202399327014, 1043.10741153533, -49114.8219531119, 0, ]
  - [2000, -49133.4683082199, 906.389148412581, -48227.0791598073, 601.228809742471, 52.6547, 52.6547, 52.6547, 145986.073631469, -936.312372410335, -1030.56065641676, -1159.59136713403, -618.785093680208, -49133.4683082199, 0, ]
  - [2100, -49142.3058952879, 899.796489235857, -48242.5094060521, 596.85574698372, 52.6547, 52.6547, 52.6547, 145986.073631469, -2321.37474663142, -2510.77515834121, -2496.51425375488, -1956.83482779816, -49142.3058952879, 0, ]
  - [2200, -49122.0429971327, 903.761511775613, -48218.2814853571, 599.485837807683, 52.6547, 52.6547, 52.6547, 145986.073631469, 282.076005633909, 137.270768080096, 431.714559250895, 277.242689570736, -49122.0429971327, 0, ]
  - [2300, -49130.9394752234, 903.003626035315, -48227.9358491881, 598.983114730781, 52.6547, 52.6547, 52.6547, 145986.073631469, -1093.95211673538, -1417.39659271737, -1262.01259332093, -602.447164167844, -49130.9394752234, 0, ]
  - [2400, -49125.8550633983, 893.794653956507, -48232.0604094418, 592.874591331543, 52.6547, 52.6547, 52.6547, 145986.073631469, -253.191224909975, 337.732060534801, -639.599258162365, -457.706477102359, -49125.8550633983, 0, ]
  - [2500, -49119.0956819016, 901.937595637308, -48217.1580862643, 598.275992201274, 52.6547, 52.6547, 52.6547, 145986.073631469, 714.901176819101, 815.870007882645, 370.835753398867, 957.997769175791, -49119.0956819016, 0, ]
  - [2600, -49130.0104356709, 886.319643594879, -48243.690792076, 587.916244698196, 52.6547, 52.6547, 52.6547, 145986.073631469, -943.242973471661, -955.130544815656, -855.147581266536, -1019.45079433279, -49130.0104356709, 0, ]
  - [2700, -49120.6245498652, 892.269827503133, -48228.3547223621, 591.863138805626, 52.6547, 52.6547, 52.6547, 145986.073631469, 412.032637271207, 171.787198801296, 815.1534348519, 249.157278160427, -49120.6245498652, 0, ]
  - [2800, -49127.6666035598, 906.90391952688, -48220.7626840329, 601.570269285408, 52.6547, 52.6547, 52.6547, 145986.073631469, -387.147049264364, -619.845379859642, 208.024472008019, -749.620239941465, -49127.6666035598, 0, ]
  - [2900, -49122.4772010307, 893.148546022071, -48229.3286550086, 592.446013049173, 52.6547, 52.6547, 52.6547, 145986.073631469, 145.418910207322, -158.769596279365, 504.58130675105, 90.4450201502838, -49122.4772010307, 0, ]
  - [3000, -49129.7064439274, 896.417107155247, -48233.2893367721, 594.614124972304, 52.6547, 52.6547, 52.6547, 145986.073631469, -72.6192386528032, -265.197827511087, 274.696021034716, -227.355909482038, -49129.7064439274, 0, ]
  - [3100, -49129.2435773874, 920.516872373086, -48208.7267050143, 610.60005461673, 52.6547, 52.6547, 52.6547, 145986.073631469, -249.791173832429, -403.792775962598, -30.3107353041796, -315.270010230511, -49129.2435773874, 0, ]
  - [3200, -49124.3636436829, 918.143494924499, -48206.2201487584, 609.025738660958, 52.6547, 52.6547, 52.6547, 145986.073631469, 657.835000768815, 390.635851650004, 994.458768046134, 588.410382610306, -49124.3636436829, 0, ]
  - [3300, -49126.2078307673, 904.162352548748, -48222.0454782186, 599.751724729818, 52.6547, 52.6547, 52.6547, 145986.073631469, 117.971200205155, 136.042798589135, 16.1540323628503, 201.71676966348, -49126.2078307673, 0, ]
  - [3400, -49119.4580717508, 901.548870965794, -48217.909200785, 598.018142168558, 52.6547, 52.6547, 52.6547, 145986.073631469, 517.766285286267, 403.813066137766, 645.704303640801, 503.781486080231, -49119.4580717508, 0, ]
  - [3500, -49112.9398399242, 899.062442629462, -48213.8773972948, 596.368836953705, 52.6547, 52.6547, 52.6547, 145986.073631469, 1017.20093705602, 1191.71821731033, 852.64728999782, 1007.2373038599, -49112.9398399242, 0, ]
  - [3600, -49125.1077481279, 905.242447042034, -48219.8653010859, 600.468176297828, 52.6547, 52.6547, 52.6547, 145986.073631469, 402.587566948182, 313.156282721056, 112.376681827179, 782.229736296311, -49125.1077481279, 0, ]
  - [3700, -49120.6333264456, 911.988666986163, -48208.6446594594, 604.943099452384, 52.6547, 52.6547, 52.6547, 145986.073631469, 559.232290879639, 397.040251683323, 432.216318636573, 848.440302319018, -49120.6333264456, 0, ]
  - [3800, -49121.0192899021, 907.446446933558, -48213.5728429686, 601.930140216719, 52.6547, 52.6547, 52.6547, 145986.073631469, 164.110395228148, -214.314685080223, 624.111608518937, 82.5342622457312, -49121.0192899021, 0, ]
  - [3900, -49115.6881244657, 903.456989665966, -48212.2311347997, 599.283841274688, 52.6547, 52.6547, 52.6547, 145986.073631469, 1474.76304599924, 1407.96922396975, 1266.27244646534, 1750.04746756264, -49115.6881244657, 0, ]
  - [4000, -49120.5425520546, 898.746204414273, -48221.7963476404, 596.159068857909, 52.6547, 52.6547, 52.6547, 145986.073631469, 372.252989969313, 131.536638005509, 782.207259619628, 203.015072282801, -49120.5425520546, 0, ]
  - [4100, -49119.1458211565, 899.827837746188, -48219.3179834103, 596.876541173044, 52.6547, 52.6547, 52.6547, 145986.073631469, 876.806923141787, 927.219271245464, 758.186118578446, 945.01537960145, -49119.1458211565, 0, ]
  - [4200, -49129.4498549697, 909.022071841482, -48220.4277831282, 602.975288528182, 52.6547, 52.6547, 52.6547, 145986.073631469, -468.516806804291, -254.35887258723, -621.220545364699, -529.971002460949, -49129.4498549697, 0, ]
  - [4300, -49128.3318670115, 907.81934288701, -48220.5125241245, 602.177490695974, 52.6547, 52.6547, 52.6547, 145986.073631469, -566.601511489085, -539.127787141919, -562.786339488248, -597.89040783709, -49128.3318670115, 0, ]
  - [4400, -49129.9950830953, 901.386189344041, -48228.6088937513, 597.910231699876, 52.6547, 52.6547, 52.6547, 145986.073631469, -860.46004578316, -666.174457202568, -466.597249246221, -1448.60843090068, -49129.9950830953, 0, ]
  - [4500, -49123.207423275, 918.165119171986, -48205.042304103, 609.040082522644, 52.6547, 52.6547, 52.6547, 145986.073631469, 179.895646889315, 303.105518661001, 266.006543596573, -29.4251215896293, -49123.207423275, 0, ]
  - [4600, -49126.2421060679, 913.438465573487, -48212.8036404944, 605.904784265745, 52.6547, 52.6547, 52.6547, 145986.073631469, -161.388281827045, -473.419117953207, 46.7757689314793, -57.5214964594062, -49126.2421060679, 0, ]
  - [4700, -49125.4164891625, 907.886858857442, -48217.5296303051, 602.222275595057, 52.6547, 52.6547, 52.6547, 145986.073631469, -132.731717118569, 43.2067535448684, -178.074432315924, -263.327472584652, -49125.4164891625, 0, ]
  - [4800, -49126.3469772942, 908.159575863692, -48218.1874014305, 602.403175070025, 52.6547, 52.6547, 52.6547, 145986.073631469, -336.293624043431, -139.420938889148, -445.336681489301, -424.123251751841, -49126.3469772942, 0, ]
  - [4900, -49129.529163093, 898.141524849913, -48231.3876382431, 595.75797096812, 52.6547, 52.6547, 52.6547, 145986.073631469, -533.895490209946, -711.748819031299, -396.12012118066, -493.817530417881, -49129.529163093, 0, ]
  - [5000, -49126.4294140585, 904.191381025963, -48222.2380330325, 599.770979987711, 52.6547, 52.6547, 52.6547, 145986.073631469, 119.802941681515, 234.544565740906, -27.6696886281945, 152.53394793184, -49126.4294140585, 0, ]
  - [5100, -49127.0748064754, 903.221168658512, -48223.8536378169, 599.127415765985, 52.6547, 52.6547, 52.6547, 145986.073631469, -234.7243403639, -340.951427106291, -284.218592745133, -79.0030012402798, -49127.0748064754, 0, ]
  - [5200, -49119.3751040421, 906.091835867553, -48213.2832681746, 601.031595479832, 52.6547, 52.6547, 52.6547, 145986.073631469, 726.676584058914, 730.75787457411, 485.60896306823, 963.662914534398, -49119.3751040421, 0, ]
  - [5300, -49119.8962539311, 915.860955865207, -48204.0352980659, 607.511677902163, 52.6547, 52.6547, 52.6547, 145986.073631469, 140.84134525323, 507.476848853044, 43.821444490759, -128.774257584111, -49119.8962539311, 0, ]
  - [5400, -49123.114332551, 921.095671007611, -48202.0186615434, 610.983985089336, 52.6547, 52.6547, 52.6547, 145986.073631469, 82.2797380822446, -35.6072281187982, 478.496442637901, -196.05000027237, -49123.114332551, 0, ]
  - [5500, -49122.4532065863, 904.262459465627, -48218.1907471207, 599.818127954732, 52.6547, 52.6547, 52.6547, 145986.073631469, 309.340212495565, 479.005268893831, 524.199081468551, -75.1837128756904, -49122.4532065863, 0, ]
  - [5600, -49110.6502473921, 896.496070506118, -48214.154176886, 594.666503182635, 52.6547, 52.6547, 52.6547, 145986.073631469, 1627.36103694487, 1535.04660745221, 1787.48866197865, 1559.54784140375, -49110.6502473921, 0, ]
  - [5700, -49128.6466546285, 920.624630887756, -48208.0220237407, 610.671533322789, 52.6547, 52.6547, 52.6547, 145986.073631469, -282.100580549582, -244.776876703009, -102.732271810335, -498.7925931354, -49128.6466546285, 0, ]
  - [5800, -49108.963725561, 901.212789691451, -48207.7509358696, 597.795211714345, 52.6547, 52.6547, 52.6547, 145986.073631469, 1569.35437207841, 2094.37602815543, 1354.78421535155, 1258.90287272825, -49108.963725561, 0, ]
  - [5900, -49114.1206304475, 905.095087307199, -48209.0255431403, 600.370429189829, 52.6547, 52.6547, 52.6547, 145986.073631469, 1678.67254684106, 2000.61021071501, 1619.46815605163, 1415.93927375656, -49114.1206304475, 0, ]
  - [6000, -49130.9253225079, 910.600688136228, -48220.3246343717, 604.02242109546, 52.6547, 52.6547, 52.6547, 145986.073631469, -564.507812258384, -403.843366860788, -643.791768208945, -645.888301705416, -49130.9253225079, 0, ]
  - [6100, -49128.4463263434, 901.278358360017, -48227.1679679834, 597.838704923224, 52.6547, 52.6547, 52.6547, 145986.073631469, -267.283922120723, -339.526323095244, -339.570920957013, -122.754522309911, -49128.4463263434, 0, ]
  - [6200, -49126.09352465, 897.391125785403, -48228.7023988646, 595.260213975798, 52.6547, 52.6547, 52.6547, 145986.073631469, -180.823000102982, -9.81057888603542, -300.75565778836, -231.902763634551, -49126.09352465, 0, ]
  - [6300, -49126.9639272745, 899.82214147757, -48227.141785797, 596.8727627068, 52.6547, 52.6547, 52.6547, 145986.073631469, -52.0052279442891, -95.3110017866408, -84.3467771605885, 23.6420951143658, -49126.9639272745, 0, ]
  - [6400, -49129.1861627232, 904.79216624677, -48224.3939964764, 600.169494669677, 52.6547, 52.6547, 52.6547, 145986.073631469, -655.754804710697, -559.053497359999, -700.017823917152, -708.19309285494, -49129.1861627232, 0, ]
  - [6500, -49129.8039476534, 920.198240394904, -48209.6057072585, 610.388698682775, 52.6547, 52.6547, 52.6547, 145986.073631469, -982.433495683974, -428.557597451324, -1414.40796347663, -1104.33492612397, -49129.8039476534, 0, ]
  - [6600, -49118.7746208491, 907.274908236552, -48211.4997126126, 601.816354645912, 52.6547, 52.6547, 52.6547, 145986.073631469, 531.459529621854, 827.634869633482, 617.215353988932, 149.528365243145, -49118.7746208491, 0, ]
  - [6700, -49121.0004535909, 898.694111015157, -48222.3063425758, 596.124514105791, 52.6547, 52.6547, 52.6547, 145986.073631469, 223.147262781662, 98.7992608624971, 348.943512104902, 221.699015377586, -49121.0004535909, 0, ]
  - [6800, -49124.8695773331, 904.044979289648, -48220.8245980435, 599.673868342208, 52.6547, 52.6547, 52.6547, 145986.073631469, -463.112257214351, -555.803766737995, -258.340806101134, -575.192198803923, -49124.8695773331, 0, ]
  - [6900, -49114.6382075238, 919.031835539512, -48195.6063719843, 609.614995462571, 52.6547, 52.6547, 52.6547, 145986.073631469, 539.16482324431, 689.220595019635, 873.24207691421, 55.0317977990847, -49114.6382075238, 0, ]
  - [7000, -49114.2591306395, 901.628979453968, -48212.6301511855, 598.071279974852, 52.6547, 52.6547, 52.6547, 145986.073631469, 1162.17268426772, 968.088679540702, 832.365684971377, 1686.06368829107, -49114.2591306395, 0, ]
  - [7100, -49126.9216728711, 911.830741907055, -48215.0909309641, 604.838344108053, 52.6547, 52.6547, 52.6547, 145986.073631469, -198.974299397274, -4.97689025842647, -483.421506882358, -108.524501051041, -49126.9216728711, 0, ]
  - [7200, -49113.8034573349, 904.773313597476, -48209.0301437374, 600.156989272944, 52.6547, 52.6547, 52.6547, 145986.073631469, 1171.2632047432, 1218.87268852527, 1386.68948095092, 908.227444753435, -49113.8034573349, 0, ]
  - [7300, -49121.6708865393, 910.908945285473, -48210.7619412538, 604.226895166294, 52.6547, 52.6547, 52.6547, 145986.073631469, 271.951789776701, 147.561975901696, 83.7372202769065, 584.5561731515, -49121.6708865393, 0, ]
  - [7400, -49121.6843445608, 907.992251964859, -48213.6920925959, 602.292185271975, 52.6547, 52.6547, 52.6547, 145986.073631469, 99.1987201775355, 122.733340378073, 26.8744044434784, 147.98841571106, -49121.6843445608, 0, ]
  - [7500, -49122.7806414927, 904.198830823205, -48218.5818106695, 599.775921609902, 52.6547, 52.6547, 52.6547, 145986.073631469, 179.631924276242, 585.108925653037, -286.49364613618, 240.280493311865, -49122.7806414927, 0, ]
  - [7600, -49122.6074854513, 906.344205779644, -48216.2632796716, 601.198998258348, 52.6547, 52.6547, 52.6547, 145986.073631469, 406.95044594403, 751.862555753474, -156.453692055225, 625.442474133845, -49122.6074854513, 0, ]
  - [7700, -49127.2792952963, 896.283726501237, -48230.995568795, 594.525650510762, 52.6547, 52.6547, 52.6547, 145986.073631469, -113.282471046406, -277.015153224896, 16.5914963093308, -79.4237562236576, -49127.2792952963, 0, ]
  - [7800, -49131.1086369183, 914.852950496456, -48216.2556864218, 606.84304471174, 52.6547, 52.6547, 52.6547, 145986.073631469, -643.852103460137, -558.5842162385, -434.365431213905, -938.606662927999, -49131.1086369183, 0, ]
  - [7900, -49116.2653076137, 903.792751765831, -48212.4725558478, 599.506560013115, 52.6547, 52.6547, 52.6547, 145986.073631469, 919.116008196656, 835.835027054824, 1204.86802842669, 716.644969108459, -49116.2653076137, 0, ]
  - [8000, -49109.7078393561, 910.470949207838, -48199.2368901482, 603.936362274445, 52.6547, 52.6547, 52.6547, 145986.073631469, 1709.28351372866, 1978.71112526254, 2034.10850394883, 1115.03091197461, -49109.7078393561, 0, ]
  - [8100, -49119.7348110778, 923.237935651662, -48196.4968754262, 612.404998595899, 52.6547, 52.6547, 52.6547, 145986.073631469, 607.639313686295, 854.927102203587, 481.678988673674, 486.311850181626, -49119.7348110778, 0, ]
  - [8200, -49114.8047722341, 910.272686683935, -48204.5320855502, 603.804850173411, 52.6547, 52.6547, 52.6547, 145986.073631469, 774.771282073793, 699.403932794453, 950.368663215052, 674.541250211878, -49114.8047722341, 0, ]
  - [8300, -49132.6105137632, 895.732005437801, -48236.8785083254, 594.159681215057, 52.6547, 52.6547, 52.6547, 145986.073631469, -1040.77456688431, -1030.94885569712, -906.744834562255, -1184.63001039357, -49132.6105137632, 0, ]
  - [8400, -49137.2778675449, 899.048152252093, -48238.2297152928, 596.359357817077, 52.6547, 52.6547, 52.6547, 145986.073631469, -1619.70751766006, -1818.56948661878, -1388.44757761442, -1652.10548874696, -49137.2778675449, 0, ]
  - [8500, -49123.9743388697, 896.195499963272, -48227.7788389064, 594.467127814962, 52.6547, 52.6547, 52.6547, 145986.073631469, -113.254773439244, -103.036219666419, 120.694518917612, -357.422619568928, -49123.9743388697, 0, ]
  - [8600, -49129.4913499253, 905.859160023867, -48223.6321899014, 600.877256230735, 52.6547, 52.6547, 52.6547, 145986.073631469, -644.525094568622, -671.857501786148, -549.980166496893, -711.737615422823, -49129.4913499253, 0, ]
  - [8700, -49124.1349586334, 898.604285162672, -48225.5306734707, 596.064930547814, 52.6547, 52.6547, 52.6547, 145986.073631469, -109.648084380408, -183.627390694464, 35.9146588229763, -181.231521269738, -49124.1349586334, 0, ]
  - [8800, -49118.3095854852, 911.184854104197, -48207.124731381, 604.40991184403, 52.6547, 52.6547, 52.6547, 145986.073631469, 788.709139825678, 737.847412053831, 895.814230959735, 732.465776463473, -49118.3095854852, 0, ]
  - [8900, -49122.345164913, 918.019108073954, -48204.326056839, 608.943229996516, 52.6547, 52.6547, 52.6547, 145986.073631469, 218.757012022221, 105.90380437316, 410.503463378799, 139.863768314702, -49122.345164913, 0, ]
  - [9000, -49117.9609116255, 910.644530502034, -48207.3163811235, 604.05150274704, 52.6547, 52.6547, 52.6547, 145986.073631469, 1198.11318621929, 1511.65364547677, 471.505872238874, 1611.18004094224, -49117.9609116255, 0, ]
  - [9100, -49119.2653498844, 911.441439628034, -48207.8239102564, 604.580110934965, 52.6547, 52.6547, 52.6547, 145986.073631469, 713.287626632982, 356.996395456744, 899.456973862423, 883.409510579774, -49119.2653498844, 0, ]
  - [9200, -49118.7871291149, 906.136628939818, -48212.6505001751, 601.061307756915, 52.6547, 52.6547, 52.6547, 145986.073631469, 821.745842255503, 1063.89629939849, 626.67109999727, 774.670127370744, -49118.7871291149, 0, ]
  - [9300, -49135.1596897187, 911.195290203013, -48223.9643995157, 604.416834348873, 52.6547, 52.6547, 52.6547, 145986.073631469, -1292.13189839626, -1286.01490346749, -1266.99898343865, -1323.38180828265, -49135.1596897187, 0, ]
  - [9400, -49124.0614892888, 893.046975489187, -48231.0145137996, 592.378638974033, 52.6547, 52.6547, 52.6547, 145986.073631469, -4.73711775697825, 110.623785201072, -101.348525978899, -23.4866124931083, -49124.0614892888, 0, ]
  - [9500, -49119.0944049571, 905.522268207744, -48213.5721367494, 600.65378812548, 52.6547, 52.6547, 52.6547, 145986.073631469, 548.94426786443, 531.68636585031, 553.540036506374, 561.606401236611, -49119.0944049571, 0, ]
  - [9600, -49120.3605238062, 912.001793302798, -48208.3587305034, 604.951806440702, 52.6547, 52.6547, 52.6547, 145986.073631469, 307.593429369641, 157.014788228306, 632.333175058121, 133.432324822499, -49120.3605238062, 0, ]
  - [9700, -49125.4026422897, 906.425571992069, -48218.9770702976, 601.252970342121, 52.6547, 52.6547, 52.6547, 145986.073631469, -506.747214343995, -1080.14440450107, -487.655326728998, 47.558088198086, -49125.4026422897, 0, ]
  - [9800, -49128.4444396721, 914.989977220682, -48213.4544624514, 606.93393769568, 52.6547, 52.6547, 52.6547, 145986.073631469, -458.335723804456, -676.639266953835, -261.272688720058, -437.095215739472, -49128.4444396721, 0, ]
  - [9900, -49120.5593907177, 910.385755622961, -48210.1736350947, 603.879851406323, 52.6547, 52.6547, 52.6547, 145986.073631469, 616.462796271005, 661.552765183903, 661.512001296299, 526.323622332812, -49120.5593907177, 0, ]
  - [10000, -49114.1596634792, 883.721951755824, -48230.4377117234, 586.193135837937, 52.6547, 52.6547, 52.6547, 145986.073631469, 1207.86429131715, 1043.11369300596, 1415.470954612, 1165.00822633349, -49114.1596634792, 0, ]
  - [10100, -49112.4610873804, 905.733069293815, -48206.7280180866, 600.79361734375, 52.6547, 52.6547, 52.6547, 145986.073631469, 1155.08183775081, 1160.0902425625, 1092.80032482529, 1212.35494586463, -49112.4610873804, 0, ]
  - [10200, -49135.2375277497, 906.757418847571, -48228.4801089021, 601.473092008737, 52.6547, 52.6547, 52.6547, 145986.073631469, -1093.08329088475, -977.937275875596, -1068.46357040981, -1232.84902636885, -49135.2375277497, 0, ]
  - [10300, -49126.3840748327, 900.691768697343, -48225.6923061353, 597.449606482103, 52.6547, 52.6547, 52.6547, 145986.073631469, -327.550271944815, -490.61129681383, 81.5272128949407, -573.566731915558, -49126.3840748327, 0, ]
  - [10400, -49116.5925430363, 900.243233322645, -48216.3493097137, 597.152082631636, 52.6547, 52.6547, 52.6547, 145986.073631469, 644.994320974736, 766.137644581965, 460.12377057502, 708.721547767225, -49116.5925430363, 0, ]
  - [10500, -49119.1942973236, 901.854527902124, -48217.3397694215, 598.220891458244, 52.6547, 52.6547, 52.6547, 145986.073631469, 565.675101089184, 796.329410397258, 872.219032512846, 28.476860357442, -49119.1942973236, 0, ]
  - [10600, -49122.989138904, 910.717579796748, -48212.2715591072, 604.099958027633, 52.6547, 52.6547, 52.6547, 145986.073631469, 262.305708934369, 271.559597648859, 988.673301711071, -473.315772556825, -49122.989138904, 0, ]
  - [10700, -49120.0701797686, 909.403932101322, -48210.6662476673, 603.228585238445, 52.6547, 52.6547, 52.6547, 145986.073631469, 336.971823826157, 427.883734917753, 629.728858782483, -46.6971222217579, -49120.0701797686, 0, ]
  - [10800, -49120.7492508471, 910.953525959578, -48209.7957248875, 604.256466554783, 52.6547, 52.6547, 52.6547, 145986.073631469, 754.738351223969, 641.584284409301, 727.787868205378, 894.842901057226, -49120.7492508471, 0, ]
  - [10900, -49122.6255256585, 903.450498553832, -48219.1750271047, 599.279535570423, 52.6547, 52.6547, 52.6547, 145986.073631469, 293.962572009533, 519.794968936804, 43.0101077381339, 319.082639353662, -49122.6255256585, 0, ]
  - [11000, -49124.7283941511, 906.885970022642, -48217.8424241285, 601.558362965604, 52.6547, 52.6547, 52.6547, 145986.073631469, 116.741225399823, -252.612471279324, 22.8121499412343, 580.023997537554, -49124.7283941511, 0, ]
  - [11100, -49121.7384380728, 902.210203411795, -48219.528234661, 598.456819220296, 52.6547, 52.6547, 52.6547, 145986.073631469, -91.1349642398216, 150.665964663188, -282.010635803485, -142.060221579166, -49121.7384380728, 0, ]
  - [11200, -49120.1619322816, 911.738827160959, -48208.4231051206, 604.777374938805, 52.6547, 52.6547, 52.6547, 145986.073631469, 533.212276104011, 657.66881044346, 387.007348743754, 554.960669124824, -49120.1619322816, 0, ]
  - [11300, -49121.5787354865, 909.32006732799, -48212.2586681585, 603.172955801644, 52.6547, 52.6547, 52.6547, 145986.073631469, 296.164989201421, 237.467757761727, -22.4077626950298, 673.434972537572, -49121.5787354865, 0, ]
  - [11400, -49114.2811351905, 905.750314395636, -48208.5308207948, 600.805056417199, 52.6547, 52.6547, 52.6547, 145986.073631469, 846.504590396894, 1029.03235730313, 1161.88717679507, 348.594237092487, -49114.2811351905, 0, ]
  - [11500, -49132.9534622364, 911.036661405096, -48221.9168008313, 604.311612211638, 52.6547, 52.6547, 52.6547, 145986.073631469, -515.464316183168, -515.029374082665, -187.54815385664, -843.815420610195, -49132.9534622364, 0, ]
  - [11600, -49124.7213825018, 909.889925459589, -48214.8314570422, 603.550955832627, 52.6547, 52.6547, 52.6547, 145986.073631469, -145.405254054616, 193.985964179625, -162.78677473496, -467.414951608517, -49124.7213825018, 0, ]
  - [11700, -49128.7130574859, 907.141742167673, -48221.5713153182, 601.728022523632, 52.6547, 52.6547, 52.6547, 145986.073631469, -428.390038271877, -955.63248822187, -288.131172229365, -41.4064543643942, -49128.7130574859, 0, ]
  - [11800, -49121.7278488414, 901.069341803676, -48220.6585070377, 597.700059424649, 52.6547, 52.6547, 52.6547, 145986.073631469, 441.408045009362, 383.209623183566, 412.365550046245, 528.648961798271, -49121.7278488414, 0, ]
  - [11900, -49117.9742201185, 899.164984958672, -48218.8092351598, 596.436855643742, 52.6547, 52.6547, 52.6547, 145986.073631469, 789.658991043067, 620.883268730906, 753.352375923424, 994.741328474867, -49117.9742201185, 0, ]
  - [12000, -49129.8931791324, 903.955709196486, -48225.9374699359, 599.614653432198, 52.6547, 52.6547, 52.6547, 145986.073631469, -461.054758948958, -913.455179777656, -393.098717609413, -76.6103794598046, -49129.8931791324, 0, ]
  - [12100, -49124.6965334694, 902.703936546342, -48221.9925969231, 598.784323786446, 52.6547, 52.6547, 52.6547, 145986.073631469, -120.931159069544, -181.775412575603, -160.336132368966, -20.6819322640663, -49124.6965334694, 0, ]
  - [12200, -49116.5553940602, 904.92649760179, -48211.6288964584, 600.258599753107, 52.6547, 52.6547, 52.6547, 145986.073631469, 772.541806895953, 860.652215353993, 850.299944616391, 606.673260717476, -49116.5553940602, 0, ]
  - [12300, -49128.1828702544, 908.033356146124, -48220.1495141083, 602.319450622648, 52.6547, 52.6547, 52.6547, 145986.073631469, 411.963143945816, 329.65391765198, 420.632757585342, 485.602756600127, -49128.1828702544, 0, ]
  - [12400, -49115.3082655599, 899.643252951621, -48215.6650126083, 596.754101825079, 52.6547, 52.6547, 52.6547, 145986.073631469, 863.024318162212, 657.456926593201, 1066.06248289443, 865.553544999006, -49115.3082655599, 0, ]
  - [12500, -49134.8655911696, 898.726095952582, -48236.1394952171, 596.145730451872, 52.6547, 52.6547, 52.6547, 145986.073631469, -1420.26595415305, -1398.00738527402, -1075.68360097108, -1787.10687621405, -49134.8655911696, 0, ]
  - [12600, -49129.738522675, 913.552132790913, -48216.1863898841, 605.980182350507, 52.6547, 52.6547, 52.6547, 145986.073631469, -496.166786381478, -422.708292094733, -889.539964911522, -176.252102138182, -49129.738522675, 0, ]
  - [12700, -49132.1309315147, 911.575814652631, -48220.5551168621, 604.669244985433, 52.6547, 52.6547, 52.6547, 145986.073631469, -423.711859680258, -378.625814154597, -554.032464365379, -338.477300520801, -49132.1309315147, 0, ]
  - [12800, -49128.7012881165, 898.075985284166, -48230.6253028323, 595.714497063811, 52.6547, 52.6547, 52.6547, 145986.073631469, -513.989015510512, -403.001937772282, -429.716406043395, -709.24870271586, -49128.7012881165, 0, ]
  - [12900, -49119.1171706446, 898.67946125062, -48220.437709394, 596.114796579372, 52.6547, 52.6547, 52.6547, 145986.073631469, 458.656479550714, 693.893277491291, 615.518638527492, 66.5575226333629, -49119.1171706446, 0, ]
  - [13000, -49125.9330484514, 905.924959179745, -48220.0080892716, 600.92090232716, 52.6547, 52.6547, 52.6547, 145986.073631469, -213.669152772343, 186.296082541403, -322.534260369074, -504.769280489357, -49125.9330484514, 0, ]
  - [13100, -49118.334495191, 914.26864017993, -48204.0658550111, 606.455458213446, 52.6547, 52.6547, 52.6547, 145986.073631469, 707.192749494348, 476.394064574874, 1048.14364301084, 597.040540897331, -49118.334495191, 0, ]
  - [13200, -49125.8594167405, 910.108995584712, -48215.7504211558, 603.696270095059, 52.6547, 52.6547, 52.6547, 145986.073631469, -140.266172802929, -57.3651815157129, -163.930631906282, -199.502704986792, -49125.8594167405, 0, ]
  - [13300, -49127.2586980309, 915.320452323933, -48211.9382457069, 607.153149447414, 52.6547, 52.6547, 52.6547, 145986.073631469, -305.943563651961, -49.093076574536, -160.909887267817, -707.82772711353, -49127.2586980309, 0, ]
  - [13400, -49121.2817544841, 901.402681490718, -48219.8790729933, 597.921171320825, 52.6547, 52.6547, 52.6547, 145986.073631469, 648.092945403788, 622.31225683076, 669.670786711942, 652.295792668663, -49121.2817544841, 0, ]
  - [13500, -49122.3589586903, 897.804757600799, -48224.5542010895, 595.534585491032, 52.6547, 52.6547, 52.6547, 145986.073631469, -39.6208982719725, -11.6436588276655, -64.49438641503, -42.7246495732206, -49122.3589586903, 0, ]
  - [13600, -49129.6087672103, 896.716214427561, -48232.8925527827, 594.812529718911, 52.6547, 52.6547, 52.6547, 145986.073631469, -277.199305888853, -83.3143397840199, -276.616763065713, -471.666814816827, -49129.6087672103, 0, ]
  - [13700, -49124.1772004986, 901.954761035159, -48222.2224394635, 598.287378405243, 52.6547, 52.6547, 52.6547, 145986.073631469, -131.879225878888, 3.96759011633806, 397.56162212786, -797.166889880862, -49124.1772004986, 0, ]
  - [13800, -49126.5000531006, 906.635156449186, -48219.8648966514, 601.391992542369, 52.6547, 52.6547, 52.6547, 145986.073631469, 73.1027480802697, 348.341237260063, 182.696530275503, -311.729523294758, -49126.5000531006, 0, ]
  - [13900, -49119.6263852485, 899.790846724373, -48219.8355385241, 596.852004175821, 52.6547, 52.6547, 52.6547, 145986.073631469, 502.509063794473, 669.626256234612, 426.946803455867, 410.954131692941, -49119.6263852485, 0, ]
  - [14000, -49128.3293597701, 915.776991206707, -48212.5523685634, 607.455982209228, 52.6547, 52.6547, 52.6547, 145986.073631469, -357.769387506688, -334.955664975632, -368.497942588279, -369.854554956155, -49128.3293597701, 0, ]
  - [14100, -49117.2643399929, 895.418724138199, -48221.8456158547, 593.951874509511, 52.6547, 52.6547, 52.6547, 145986.073631469, 638.889568811893, 407.335789602316, 643.32827400876, 866.004642824602, -49117.2643399929, 0, ]
  - [14200, -49136.2462936417, 917.086483236757, -48219.159810405, 608.324598449805, 52.6547, 52.6547, 52.6547, 145986.073631469, -1210.74047152199, -1057.64848460496, -1164.06475030171, -1410.5081796593, -49136.2462936417, 0, ]
  - [14300, -49119.5373743598, 909.743121577567, -48209.7942527822, 603.453577434609, 52.6547, 52.6547, 52.6547, 145986.073631469, 610.216819547988, 698.06351890708, 533.905358661998, 598.681581074885, -49119.5373743598, 0, ]
  - [14400, -49113.2752467761, 897.710587558928, -48215.5646592172, 595.472120332125, 52.6547, 52.6547, 52.6547, 145986.073631469, 1034.04634022701, 1057.41817220427, 988.952349597388, 1055.76849887937, -49113.2752467761, 0, ]
  - [14500, -49123.0374138428, 914.313391295513, -48208.7240225473, 606.485142659695, 52.6547, 52.6547, 52.6547, 145986.073631469, 319.330384751003, -82.9970997606031, 445.051146999439, 595.937107014177, -49123.0374138428, 0, ]
  - [14600, -49124.0028141027, 912.003097336202, -48211.9997167665, 604.95267143611, 52.6547, 52.6547, 52.6547, 145986.073631469, 194.844516973494, -122.85987351316, 717.669272531849, -10.2758480982062, -49124.0028141027, 0, ]
  - [14700, -49125.9588864784, 903.395848418869, -48222.5630380595, 599.243284876498, 52.6547, 52.6547, 52.6547, 145986.073631469, -466.073273315031, -53.823220764641, -620.751582108453, -723.645017072, -49125.9588864784, 0, ]
  - [14800, -49132.5117713244, 910.327495394333, -48222.18427593, 603.841206054076, 52.6547, 52.6547, 52.6547, 145986.073631469, -1021.28632392069, -1003.93951102688, -1325.76097109878, -734.158489636426, -49132.5117713244, 0, ]
  - [14900, -49122.7437573439, 902.218773516599, -48220.5249838273, 598.462503968309, 52.6547, 52.6547, 52.6547, 145986.073631469, 306.62917813202, 711.847497415332, 391.771051329714, -183.731014348986, -49122.7437573439, 0, ]
  - [15000, -49121.2082374395, 908.368919753124, -48212.8393176864, 602.542037696184, 52.6547, 52.6547, 52.6547, 145986.073631469, 369.272533646132, 491.082441671535, 247.325858438482, 369.409300828381, -49121.2082374395, 0, ]
  - [15100, -49125.1974027158, 905.583044295165, -48219.6143584206, 600.694102304842, 52.6547, 52.6547, 52.6547, 145986.073631469, -26.0276881168413, 111.364247040766, -1.95508590651232, -187.49222548477, -49125.1974027158, 0, ]
  - [15200, -49124.33591364, 903.585635702306, -48220.7502779377, 599.369175155221, 52.6547, 52.6547, 52.6547, 145986.073631469, 289.764558717499, 427.412042529211, 390.498208125945, 51.3834254973398, -49124.33591364, 0, ]
  - [15300, -49125.3202476755, 901.085528056537, -48224.234719619, 597.710796139181, 52.6547, 52.6547, 52.6547, 145986.073631469, -468.880175335796, -444.569578602356, -307.603122828411, -654.467824576624, -49125.3202476755, 0, ]
  - [15400, -49116.5258284607, 902.286351309323, -48214.2394771513, 598.507329875543, 52.6547, 52.6547, 52.6547, 145986.073631469, 1096.19474565615, 1134.86601355379, 861.465152777641, 1292.25307063701, -49116.5258284607, 0, ]
  - [15500, -49119.3332957179, 912.05546326441, -48207.2778324535, 604.987406963055, 52.6547, 52.6547, 52.6547, 145986.073631469, 911.045989788159, 1030.87966468228, 837.516358429539, 864.741946252657, -49119.3332957179, 0, ]
  - [15600, -49123.1543633409, 911.768528440249, -48211.3858349006, 604.79707648182, 52.6547, 52.6547, 52.6547, 145986.073631469, 464.537654351646, 248.932464142336, 898.24811894954, 246.432379963061, -49123.1543633409, 0, ]
  - [15700, -49110.2367811751, 894.681209603317, -48215.5555715718, 593.462664122613, 52.6547, 52.6547, 52.6547, 145986.073631469, 1437.2796673848, 1365.29277077437, 1563.05104802831, 1383.49518335173, -49110.2367811751, 0, ]
  - [15800, -49126.9135966716, 906.179646877475, -48220.7339497941, 601.089842546304, 52.6547, 52.6547, 52.6547, 145986.073631469, -355.451876215335, -291.342017233081, -478.259620265103, -296.753991147821, -49126.9135966716, 0, ]
  - [15900, -49131.777809875, 897.303398128319, -48234.4744117467, 595.202022199183, 52.6547, 52.6547, 52.6547, 145986.073631469, -675.643681164309, -1118.61162083752, -408.497644195463, -499.821778459937, -49131.777809875, 0, ]
  - [16000, -49123.9078318192, 906.848162205955, -48217.0596696133, 601.53328416952, 52.6547, 52.6547, 52.6547, 145986.073631469, 131.968669400241, 487.903816241243, -279.313916492315, 187.316108451795, -49123.9078318192, 0, ]
  - [16100, -49122.1176087747, 902.398307541538, -48219.7193012332, 598.581593024386, 52.6547, 52.6547, 52.6547, 145986.073631469, 130.900201678115, 400.076687350376, 110.80679797927, -118.182880295303, -49122.1176087747, 0, ]
  - [16200, -49119.4015821308, 908.115261407017, -48211.2863207238, 602.373780269693, 52.6547, 52.6547, 52.6547, 145986.073631469, 577.840589656822, 499.696272514545, 462.081878456009, 771.743617999912, -49119.4015821308, 0, ]
  - [16300, -49119.2371804524, 913.931364892288, -48205.3058155601, 606.231735742695, 52.6547, 52.6547, 52.6547, 145986.073631469, 600.953931805638, 793.579307052675, 709.372448006832, 299.910040357402, -49119.2371804524, 0, ]
  - [16400, -49124.022195882, 907.344097752261, -48216.6780981297, 601.862249646144, 52.6547, 52.6547, 52.6547, 145986.073631469, -482.61373617608, -572.109063191696, -677.293123465882, -198.439021870666, -49124.022195882, 0, ]
  - [16500, -49121.8598079714, 909.222293936505, -48212.6375140349, 603.108100457899, 52.6547, 52.6547, 52.6547, 145986.073631469, 430.388859401911, 416.769286172449, 159.226590206806, 715.170701826475, -49121.8598079714, 0, ]
  - [16600, -49120.3991711883, 914.879281482141, -48205.5198897061, 606.860510661339, 52.6547, 52.6547, 52.6547, 145986.073631469, 304.362787022771, 201.822147287394, 562.736382967518, 148.529830813402, -49120.3991711883, 0, ]
  - [16700, -49118.4025787415, 906.60409317975, -48211.7984855617, 601.371387559904, 52.6547, 52.6547, 52.6547, 145986.073631469, 452.977530440457, 261.110256491552, 613.537705542259, 484.284629287567, -49118.4025787415, 0, ]
  - [16800, -49124.2654804627, 909.118921287265, -48215.1465591754, 603.039530997451, 52.6547, 52.6547, 52.6547, 145986.073631469, -205.060529167299, -245.375051792859, -351.143628230729, -18.6629074783084, -49124.2654804627, 0, ]
  - [16900, -49122.7606138335, 904.460163422043, -48218.3004504115, 599.949269545081, 52.6547, 52.6547, 52.6547, 145986.073631469, 467.093268543208, 655.256921510862, 173.662470388092, 572.360413730672, -49122.7606138335, 0, ]
  - [17000, -49111.8823929927, 900.992788763201, -48210.8896042295, 597.649280028748, 52.6547, 52.6547, 52.6547, 145986.073631469, 1644.85076083265, 1962.51950606195, 1286.17328237318, 1685.85949406282, -49111.8823929927, 0, ]
  - [17100, -49126.1406507107, 906.976324845641, -48219.1643258651, 601.618297401911, 52.6547, 52.6547, 52.6547, 145986.073631469, -240.941569567554, -55.0003848972578, -712.138502751227, 44.3141789458227, -49126.1406507107, 0, ]
  - [17200, -49123.6917390178, 897.291707222945, -48226.4000317948, 595.194267352233, 52.6547, 52.6547, 52.6547, 145986.073631469, 382.54648332546, 547.545763454719, 250.390043655688, 349.70364286597, -49123.6917390178, 0, ]
  - [17300, -49122.1123116868, 902.841171156667, -48219.2711405302, 598.875354666026, 52.6547, 52.6547, 52.6547, 145986.073631469, 449.503949971203, 767.669977143442, 234.772994167006, 346.06887860316, -49122.1123116868, 0, ]
  - [17400, -49122.69796352, 892.845064387218, -48229.8528991328, 592.244706687087, 52.6547, 52.6547, 52.6547, 145986.073631469, 320.056888887662, -9.97570229578174, 275.592318114133, 694.55405084463, -49122.69796352, 0, ]
  - [17500, -49122.1765919043, 888.867361494723, -48233.3092304096, 589.606204692935, 52.6547, 52.6547, 52.6547, 145986.073631469, 294.98655980059, 287.686279953231, -140.272909846407, 737.546309294944, -49122.1765919043, 0, ]
  - [17600, -49129.586180401, 909.248295697739, -48220.3378847033, 603.125348025332, 52.6547, 52.6547, 52.6547, 145986.073631469, -371.877389521874, -540.406974632202, -475.420935832081, -99.804258101339, -49129.586180401, 0, ]
  - [17700, -49129.1895935316, 900.500943438596, -48228.688650093, 597.323027690437, 52.6547, 52.6547, 52.6547, 145986.073631469, -407.429195699922, -584.232620018075, -306.229979513266, -331.824987568421, -49129.1895935316, 0, ]
  - [17800, -49124.3678670328, 905.256003375361, -48219.1118636574, 600.477168526128, 52.6547, 52.6547, 52.6547, 145986.073631469, -94.2807664662846, 235.464395137223, -421.677810864326, -96.6288836717438, -49124.3678670328, 0, ]
  - [17900, -49127.0269966105, 908.379786833057, -48218.6472097774, 602.549246080733, 52.6547, 52.6547, 52.6547, 145986.073631469, -467.401907202005, -585.710579776606, -125.87815202462, -690.616989804791, -49127.0269966105, 0, ]
  - [18000, -49131.6271726048, 899.862827409684, -48231.7643451951, 596.899750623173, 52.6547, 52.6547, 52.6547, 145986.073631469, -390.77690335291, -582.162899429619, 50.5061375046091, -640.673948133723, -49131.6271726048, 0, ]
  - [18100, -49124.1297941418, 900.861076799329, -48223.2687173425, 597.561912447829, 52.6547, 52.6547, 52.6547, 145986.073631469, 267.330267186546, 58.6270467398922, 297.360635231737, 446.003119588008, -49124.1297941418, 0, ]
  - [18200, -49129.4991576517, 912.228470382603, -48217.2706872691, 605.102166571475, 52.6547, 52.6547, 52.6547, 145986.073631469, -717.020472349795, -690.556210424986, -673.298331239083, -787.206875385317, -49129.4991576517, 0, ]
  - [18300, -49132.0528107278, 905.117898092956, -48226.9349126349, 600.385560109693, 52.6547, 52.6547, 52.6547, 145986.073631469, -644.358322456425, -921.286976283626, -379.672552462414, -632.115438623224, -49132.0528107278, 0, ]
  - [18400, -49133.5268908294, 895.527523485002, -48237.9993673444, 594.02404362351, 52.6547, 52.6547, 52.6547, 145986.073631469, -1141.54788142329, -1428.24046813906, -833.084175684811, -1163.319000446, -49133.5268908294, 0, ]
  - [18500, -49127.623126777, 902.879908300155, -48224.7432184769, 598.901049905993, 52.6547, 52.6547, 52.6547, 145986.073631469, -143.716456602665, -180.067786938947, -280.973055943687, 29.8914730746398, -49127.623126777, 0, ]
  - [18600, -49129.2566165839, 904.653357674032, -48224.6032589099, 600.077419744557, 52.6547, 52.6547, 52.6547, 145986.073631469, -668.679264377472, -684.724024465896, -770.744293211099, -550.569475455424, -49129.2566165839, 0, ]
  - [18700, -49117.397182396, 893.974436490279, -48223.4227459057, 592.993845229256, 52.6547, 52.6547, 52.6547, 145986.073631469, 995.864842432277, 1342.83249236495, 550.746817804343, 1094.01521712754, -49117.397182396, 0, ]
  - [18800, -49133.8698356064, 905.339882970348, -48228.5299526361, 600.532807794475, 52.6547, 52.6547, 52.6547, 145986.073631469, -1136.92567005576, -956.513713231423, -1191.89179016906, -1262.3715067668, -49133.8698356064, 0, ]
  - [18900, -49127.538947861, 896.343939412176, -48231.1950084488, 594.565591122185, 52.6547, 52.6547, 52.6547, 145986.073631469, -393.495147471164, -410.982363401878, -223.263550257605, -546.239528754011, -49127.538947861, 0, ]
  - [19000, -49127.289091393, 905.308206049346, -48221.9808853437, 600.511795762785, 52.6547, 52.6547, 52.6547, 145986.073631469, -278.518227424961, -69.5781252239809, -313.81926669336, -452.15729035754, -49127.289091393, 0, ]
  - [19100, -49128.4837134546, 903.747193073848, -48224.7365203807, 599.47633988283, 52.6547, 52.6547, 52.6547, 145986.073631469, -620.594435024093, -1120.91392019542, -523.349526401255, -217.519858475602, -49128.4837134546, 0, ]
  - [19200, -49118.1082194181, 910.327945381165, -48207.780274037, 603.841504540711, 52.6547, 52.6547, 52.6547, 145986.073631469, 765.363928571564, 504.482654760119, 842.406398714963, 949.20273223961, -49118.1082194181, 0, ]
  - [19300, -49118.4557282724, 901.158837020133, -48217.2968912522, 597.759423664128, 52.6547, 52.6547, 52.6547, 145986.073631469, 405.94913093015, 197.647764645047, 541.129093434277, 479.070534711125, -49118.4557282724, 0, ]
  - [19400, -49130.0006498011, 908.074298580827, -48221.9263512203, 602.346608683098, 52.6547, 52.6547, 52.6547, 145986.073631469, -1151.67551470706, -1136.44057183862, -1195.09315827057, -1123.49281401199, -49130.0006498011, 0, ]
  - [19500, -49124.031934695, 912.202209332436, -48211.8297253626, 605.084747011718, 52.6547, 52.6547, 52.6547, 145986.073631469, 45.5939280601815, -93.6506241657703, -180.637192243098, 411.069600589415, -49124.031934695, 0, ]
  - [19600, -49124.0386972733, 903.365094422601, -48220.6736028507, 599.222885042052, 52.6547, 52.6547, 52.6547, 145986.073631469, 84.2764278349962, -0.924814153969008, -274.573661637333, 528.327759296291, -49124.0386972733, 0, ]
  - [19700, -49119.4453706863, 899.155906126305, -48220.28946456, 596.430833445014, 52.6547, 52.6547, 52.6547, 145986.073631469, 784.730584004662, 714.254440539203, 1004.73350090607, 635.203810568712, -49119.4453706863, 0, ]
  - [19800, -49126.6465402169, 896.526864335055, -48230.1196758819, 594.686929439008, 52.6547, 52.6547, 52.6547, 145986.073631469, -171.958023657491, -418.007201646864, -63.1430577659029, -34.723811559705, -49126.6465402169, 0, ]
  - [19900, -49127.6756698999, 893.765823775673, -48233.9098461242, 592.855467608209, 52.6547, 52.6547, 52.6547, 145986.073631469, -524.549297062375, -448.561107519923, -602.181143382124, -522.905640285078, -49127.6756698999, 0, ]
  - [20000, -49122.6190660245, 899.843576567536, -48222.775489457, 596.886981095943, 52.6547, 52.6547, 52.6547, 145986.073631469, 449.24530239965, 572.596315824616, 377.053910919504, 398.085680454835, -50040.0734596004, 0, ]
...
Loop time of 19.176 on 64 procs for 20000 steps with 11664 atoms

Performance: 90.113 ns/day, 0.266 hours/ns, 1042.972 timesteps/s, 12.165 Matom-step/s
73.9% CPU use with 64 MPI tasks x 1 OpenMP threads

MPI task timing breakdown:
Section |  min time  |  avg time  |  max time  |%varavg| %total
---------------------------------------------------------------
Pair    | 10.417     | 11.478     | 12.742     |  15.5 | 59.85
Neigh   | 0          | 0          | 0          |   0.0 |  0.00
Comm    | 3.9869     | 5.0382     | 6.1762     |  22.9 | 26.27
Output  | 0.028414   | 0.029731   | 0.09917    |   5.1 |  0.16
Modify  | 1.7885     | 2.0875     | 2.4798     |  13.3 | 10.89
Other   |            | 0.5428     |            |       |  2.83

Nlocal:         182.25 ave         250 max         128 min
Histogram: 1 6 15 0 18 11 6 6 0 1
Nghost:        1275.75 ave        1330 max        1208 min
Histogram: 1 0 6 6 9 20 0 15 6 1
Neighs:           8019 ave       10580 max        5852 min
Histogram: 1 6 9 10 12 13 6 2 4 1

Total # of neighbors = 513216
Ave neighs/atom = 44
Neighbor list builds = 0
Dangerous builds = 0
fix fpf all print 1 "${dE} ${lambda}" title "# dE [eV] lambda" screen no file data/forward_${T}K.dat
fix fpf all print 1 "${dE} ${lambda}" title "# dE [eV] lambda" screen no file data/forward_600K.dat
run ${t}
run 100000
Per MPI rank memory allocation (min/avg/max) = 3.731 | 3.734 | 3.736 Mbytes
---
keywords: ['Step', 'PotEng', 'KinEng', 'TotEng', 'Temp', 'Lx', 'Ly', 'Lz', 'Volume', 'Press', 'Pxx', 'Pyy', 'Pzz', 'v_dE', 'v_lambda', ]
data:
  - [20000, -49122.6190660245, 899.843576567537, -48222.775489457, 596.886981095943, 52.6547, 52.6547, 52.6547, 145986.073631469, 449.24530239965, 572.59631582461, 377.053910919487, 398.085680454854, -50040.0734596004, 0, ]
  - [20100, -49119.1529658038, 895.502680714755, -48223.650285089, 594.007564841507, 52.6547, 52.6547, 52.6547, 145986.073631469, 852.665232640175, 1010.24323579977, 670.238735308919, 877.513726811832, -50041.504070562, 1.2558053968507e-13, ]
  - [20200, -49114.6153466168, 907.286449460552, -48207.3288971563, 601.824010205757, 52.6547, 52.6547, 52.6547, 145986.073631469, 1539.72020681397, 1097.92499934162, 1981.29981674579, 1539.9358043545, -50061.3175058079, 4.00518903939584e-12, ]
  - [20300, -49126.7597131932, 906.654410497335, -48220.1053026959, 601.404764196213, 52.6547, 52.6547, 52.6547, 145986.073631469, -465.026876923656, -954.611484781711, -427.400223006286, -13.0689229829728, -50081.2742037592, 3.03129989146628e-11, ]
  - [20400, -49123.9226702608, 904.668383196162, -48219.2542870646, 600.087386519647, 52.6547, 52.6547, 52.6547, 145986.073631469, 70.8607863115266, 222.565994655047, -137.598545410098, 127.614909689633, -50068.9595366062, 1.2731250673451e-10, ]
  - [20500, -49121.7650325009, 907.355167798569, -48214.4098647023, 601.869592662967, 52.6547, 52.6547, 52.6547, 145986.073631469, 528.057695079097, 396.572065206967, 520.879225786407, 666.721794243916, -50055.4679195396, 3.87229564589844e-10, ]
  - [20600, -49124.3280727196, 905.998381029437, -48218.3296916901, 600.969604732057, 52.6547, 52.6547, 52.6547, 145986.073631469, -516.516176425233, -818.912435785374, -352.061152177777, -378.574941312545, -50057.3969324431, 9.60331117066399e-10, ]
  - [20700, -49126.4587299297, 916.213690704178, -48210.2450392255, 607.745655049574, 52.6547, 52.6547, 52.6547, 145986.073631469, 224.498889635483, 261.811613448976, 583.30004649521, -171.614991037741, -50045.6105320504, 2.06871232013244e-09, ]
  - [20800, -49124.2894785079, 908.116850636975, -48216.1726278709, 602.374834442548, 52.6547, 52.6547, 52.6547, 145986.073631469, 109.036798971588, -47.388214324222, 211.033406412847, 163.465204826141, -50036.9459202831, 4.0197947066522e-09, ]
  - [20900, -49112.0275950252, 902.222596631664, -48209.8049983935, 598.465039928635, 52.6547, 52.6547, 52.6547, 145986.073631469, 1709.9718852608, 1749.28567555906, 1342.11270436415, 2038.51727585919, -50056.5058238869, 7.21953805066232e-09, ]
  - [21000, -49124.202764471, 908.116160646716, -48216.0866038243, 602.374376756108, 52.6547, 52.6547, 52.6547, 145986.073631469, 133.653865923702, 298.194648136849, 252.243541579329, -149.476591945072, -50064.4827853592, 1.218536857e-08, ]
  - [21100, -49121.8946144874, 905.257614812537, -48216.6369996749, 600.478237429542, 52.6547, 52.6547, 52.6547, 145986.073631469, 507.673828235351, 236.463709934427, 603.060926038659, 683.496848732967, -50061.5767087496, 1.95588260943488e-08, ]
  - [21200, -49132.2842513225, 913.020892920338, -48219.2633584022, 605.627798702012, 52.6547, 52.6547, 52.6547, 145986.073631469, -859.215401564405, -129.66409566128, -1211.41617042604, -1236.5659386059, -50049.5996465355, 3.01179328132704e-08, ]
  - [21300, -49122.3224177974, 893.383306760094, -48228.9391110373, 592.601735256729, 52.6547, 52.6547, 52.6547, 145986.073631469, 407.543148800371, 678.297713316548, 441.136075968989, 103.195657115572, -50036.2586877592, 4.47892862063179e-08, ]
  - [21400, -49131.764824311, 897.443138935847, -48234.3216853752, 595.294715497123, 52.6547, 52.6547, 52.6547, 145986.073631469, -1129.46510148137, -981.819146362106, -1317.89373014194, -1088.68242794005, -50028.0222356997, 6.46598787448807e-08, ]
  - [21500, -49128.4885824397, 891.427996913969, -48237.0605855257, 591.304733175975, 52.6547, 52.6547, 52.6547, 145986.073631469, -642.901944887196, -584.605839184408, -573.286204570512, -770.813790906668, -50042.7313399485, 9.09886469429883e-08, ]
  - [21600, -49125.554557528, 912.145560252944, -48213.4089972751, 605.047170371822, 52.6547, 52.6547, 52.6547, 145986.073631469, 125.783774230057, 174.141237636042, -88.3261872920986, 291.536272346231, -50045.2673936578, 1.25217752321905e-07, ]
  - [21700, -49116.3532500589, 903.444689083112, -48212.9085609758, 599.275682014616, 52.6547, 52.6547, 52.6547, 145986.073631469, 629.143420330302, 694.293213595855, 780.54699509262, 412.590052302432, -50057.0597400464, 1.68983596840977e-07, ]
  - [21800, -49126.0557510077, 896.622337541784, -48229.433413466, 594.750259017197, 52.6547, 52.6547, 52.6547, 145986.073631469, -194.197421696805, -104.88478408762, -212.419577463179, -265.287903539612, -50066.6251199021, 2.24127575334849e-07, ]
  - [21900, -49126.7060617142, 910.665854552322, -48216.0402071619, 604.065647481005, 52.6547, 52.6547, 52.6547, 145986.073631469, -219.012738802324, -400.469579428574, 7.05388576103321, -263.62252273943, -50064.4242191991, 2.92706567484841e-07, ]
  - [22000, -49125.0602873722, 907.426548673047, -48217.6337386991, 601.91694124197, 52.6547, 52.6547, 52.6547, 145986.073631469, -286.461141400332, -170.956577649768, -285.89309061216, -402.533755939065, -50033.2206261726, 3.7700317184e-07, ]
  - [22100, -49109.2944582515, 893.105328555046, -48216.1891296965, 592.417345907355, 52.6547, 52.6547, 52.6547, 145986.073631469, 1017.05998639674, 1076.69917955239, 1054.89708499124, 919.583694646581, -50031.161739274, 4.79535684391045e-07, ]
  - [22200, -49125.504640354, 908.345989879712, -48217.1586504743, 602.526827782734, 52.6547, 52.6547, 52.6547, 145986.073631469, -25.7720171228999, -130.801573655929, -116.706972665326, 170.192494952556, -50045.9875450732, 6.03067824188202e-07, ]
  - [22300, -49118.1935927483, 905.154207703298, -48213.039385045, 600.409645110982, 52.6547, 52.6547, 52.6547, 145986.073631469, 664.446248307384, 920.406949496441, 537.092234790995, 535.839560634714, -50062.7407687936, 7.50618208481703e-07, ]
  - [22400, -49123.6171553287, 896.881379390226, -48226.7357759385, 594.922087444849, 52.6547, 52.6547, 52.6547, 145986.073631469, -249.307830177201, -526.460971893723, -247.649631507057, 26.1871128691789, -50068.2463268385, 9.25469579851522e-07, ]
  - [22500, -49122.6496924977, 902.781743216998, -48219.8679492807, 598.835934744135, 52.6547, 52.6547, 52.6547, 145986.073631469, -49.2925860906728, -87.7932313402016, 278.044313313855, -338.12884024567, -50081.2147344323, 1.13117778778076e-06, ]
  - [22600, -49123.6424658989, 906.389107672236, -48217.2533582267, 601.228782718462, 52.6547, 52.6547, 52.6547, 145986.073631469, -324.595892188656, -37.018797539027, -933.530536792966, -3.23834223397422, -50083.1005946406, 1.37158052711496e-06, ]
  - [22700, -49114.9754170289, 902.150962439864, -48212.824454589, 598.417523318415, 52.6547, 52.6547, 52.6547, 145986.073631469, 1484.04519105, 1601.9599640313, 1565.72725817165, 1284.44835094704, -50042.3211061723, 1.65080583583745e-06, ]
  - [22800, -49130.8971806041, 909.947593607014, -48220.9495869971, 603.589208443768, 52.6547, 52.6547, 52.6547, 145986.073631469, -454.456164934138, -411.061872509328, -328.88781757745, -623.418804715636, -50030.0897262954, 1.97328035457892e-06, ]
  - [22900, -49122.7518589449, 900.083035253991, -48222.6688236909, 597.045819560957, 52.6547, 52.6547, 52.6547, 145986.073631469, 357.420965922394, 794.995080257695, -10.1287784221308, 287.39659593162, -50031.5122351797, 2.343737350267e-06, ]
  - [23000, -49125.9035091051, 908.024726746765, -48217.8787823584, 602.31372654319, 52.6547, 52.6547, 52.6547, 145986.073631469, -113.107022728776, 22.2546000759783, -292.076584656895, -69.49908360541, -50039.6162349111, 2.76722450631e-06, ]
  - [23100, -49125.6662974318, 905.625197011397, -48220.0411004204, 600.722063172922, 52.6547, 52.6547, 52.6547, 145986.073631469, -54.5134298401569, -247.409769690054, -253.205324513709, 337.07480468329, -50047.282991389, 3.2491114816967e-06, ]
  - [23200, -49121.1741926645, 896.92670634975, -48224.2474863147, 594.952153861654, 52.6547, 52.6547, 52.6547, 145986.073631469, -423.159509261324, -315.218822822807, -578.893128190252, -375.366576770914, -50085.7804003235, 3.79509724138202e-06, ]
  - [23300, -49127.1728558894, 912.29868932414, -48214.8741665653, 605.148744413582, 52.6547, 52.6547, 52.6547, 145986.073631469, -662.270140723053, -1210.22163473096, -385.61079267428, -390.977994763918, -50092.8737128878, 4.41121716031674e-06, ]
  - [23400, -49132.6722633317, 891.492671845525, -48241.1795914862, 591.347633548501, 52.6547, 52.6547, 52.6547, 145986.073631469, -866.245775692767, -959.151700245333, -952.3719882326, -687.213638600364, -50077.1716860366, 5.10384990346721e-06, ]
  - [23500, -49125.1155052592, 902.642959548315, -48222.4725457109, 598.743876338449, 52.6547, 52.6547, 52.6547, 145986.073631469, -482.771924969597, 54.7304574155918, -354.031784629132, -1149.01444769526, -50077.9483003632, 5.87972408415916e-06, ]
  - [23600, -49127.5604601768, 896.299943524512, -48231.2605166523, 594.536407636019, 52.6547, 52.6547, 52.6547, 145986.073631469, -308.979151164101, -84.4206589021406, -191.440975555973, -651.075819034192, -50068.0052592907, 6.74592470306796e-06, ]
  - [23700, -49118.8326146451, 907.78455920203, -48211.0480554431, 602.154417876142, 52.6547, 52.6547, 52.6547, 145986.073631469, 853.161275166801, 800.697970050607, 732.398361547886, 1026.38749390191, -50032.0785745986, 7.70989937016563e-06, ]
  - [23800, -49116.0080513208, 905.410684592599, -48210.5973667282, 600.579772142127, 52.6547, 52.6547, 52.6547, 145986.073631469, 599.973868578275, 1010.58388557311, 384.163930582892, 405.173789578821, -50062.5128225347, 8.77946431192315e-06, ]
  - [23900, -49111.4732627675, 902.982204168825, -48208.4910585987, 598.968905113074, 52.6547, 52.6547, 52.6547, 145986.073631469, 1465.93893078304, 1435.83663435802, 1093.4017502868, 1868.57840770429, -50079.4515350863, 9.96281016605489e-06, ]
  - [24000, -49131.0498575925, 911.614595825477, -48219.4352617671, 604.694969431088, 52.6547, 52.6547, 52.6547, 145986.073631469, -704.891890158134, -803.805192684472, -815.619725523352, -495.250752266578, -50061.730046884, 1.126850756608e-05, ]
  - [24100, -49130.0756846001, 915.049261292771, -48215.0264233074, 606.973262186889, 52.6547, 52.6547, 52.6547, 145986.073631469, -247.703976181686, -252.468498497152, -190.935735161833, -299.707694886076, -50048.6963064471, 1.2705512517964e-05, ]
  - [24200, -49135.4569311308, 907.126555684537, -48228.3303754463, 601.717948979398, 52.6547, 52.6547, 52.6547, 145986.073631469, -1022.88667337716, -942.810265974904, -660.793458920307, -1465.05629523628, -50029.6532621471, 1.42831715710919e-05, ]
  - [24300, -49126.6137632157, 887.494330904552, -48239.1194323112, 588.695441861193, 52.6547, 52.6547, 52.6547, 145986.073631469, -467.074444397759, -583.469171948121, -420.581051545121, -397.173109700033, -50046.3324079456, 1.60112267858132e-05, ]
  - [24400, -49125.7651972183, 892.87278768515, -48232.8924095331, 592.263096189484, 52.6547, 52.6547, 52.6547, 145986.073631469, -60.67308223505, 84.8299769310817, -355.038939134608, 88.189715498374, -50051.4943739135, 1.78998204997854e-05, ]
  - [24500, -49121.998743027, 901.568962238262, -48220.4297807888, 598.031469172586, 52.6547, 52.6547, 52.6547, 145986.073631469, 474.527445588353, 518.200000945147, 792.995103333866, 112.387232486054, -50063.3387020598, 1.99594998953344e-05, ]
  - [24600, -49122.5105448699, 906.546908719745, -48215.9636361502, 601.333455789775, 52.6547, 52.6547, 52.6547, 145986.073631469, 99.993996161807, 470.066950159548, 67.6014287348849, -237.686390409008, -50064.1042721267, 2.2201221370035e-05, ]
  - [24700, -49124.9249979427, 899.73970373902, -48225.1852942036, 596.818079855055, 52.6547, 52.6547, 52.6547, 145986.073631469, -7.99717625780196, 76.9190295261019, 63.9536845831583, -164.864242882664, -50075.2741907925, 2.46363547127047e-05, ]
  - [24800, -49129.6273357737, 910.382427442712, -48219.244908331, 603.877643747666, 52.6547, 52.6547, 52.6547, 145986.073631469, -214.278171039327, 170.4655184588, -466.746449972526, -346.553581604254, -50066.0318211685, 2.7276687086994e-05, ]
  - [24900, -49114.7431915081, 909.081194985836, -48205.6619965222, 603.014506272316, 52.6547, 52.6547, 52.6547, 145986.073631469, 1208.05735916359, 1525.97466430991, 1328.05339343107, 770.144019749785, -50038.3778960702, 3.01344268247409e-05, ]
  - [25000, -49118.4989944305, 914.065655718977, -48204.4333387116, 606.32081394275, 52.6547, 52.6547, 52.6547, 145986.073631469, 513.017069663081, 415.263121929261, 828.753752127192, 295.034334932789, -50033.8207868973, 3.322220703125e-05, ]
  - [25100, -49122.9623901564, 909.462432786545, -48213.4999573698, 603.267390091094, 52.6547, 52.6547, 52.6547, 145986.073631469, 332.577156778684, 243.463768608246, 310.143416568502, 444.124285159304, -50045.0530952406, 3.6553089004642e-05, ]
  - [25200, -49123.2431271003, 910.456158553035, -48212.7869685473, 603.926551292266, 52.6547, 52.6547, 52.6547, 145986.073631469, 612.481241977181, 249.965318534409, 888.505597984506, 698.972809412624, -50044.4538048367, 4.01405654714096e-05, ]
  - [25300, -49120.3213366511, 902.095278824392, -48218.2260578267, 598.380587093052, 52.6547, 52.6547, 52.6547, 145986.073631469, 639.990893149845, 410.994406020044, 603.396647009965, 905.58162641953, -50029.0797117324, 4.39985636403039e-05, ]
  - [25400, -49113.898536932, 902.557953253094, -48211.3405836789, 598.687489703872, 52.6547, 52.6547, 52.6547, 145986.073631469, 1077.00983636149, 1384.8563941583, 909.123040454649, 937.050074471516, -50020.0698662247, 4.81414480766634e-05, ]
  - [25500, -49125.2418742641, 899.468129385184, -48225.7737448789, 596.637938327765, 52.6547, 52.6547, 52.6547, 145986.073631469, -354.543843432121, 84.2308529939487, -638.409855267054, -509.452528023257, -50017.8067951121, 5.25840233992879e-05, ]
  - [25600, -49116.8550488845, 899.09684225387, -48217.7582066307, 596.391655017309, 52.6547, 52.6547, 52.6547, 145986.073631469, 1121.60214535024, 952.706079413201, 1065.39777325244, 1346.7025833851, -50006.1419904954, 5.7341536801945e-05, ]
  - [25700, -49129.0682481678, 905.454070935251, -48223.6141772325, 600.60855130304, 52.6547, 52.6547, 52.6547, 145986.073631469, -533.887996221522, -352.954177891668, -746.72719724442, -501.982613528479, -50010.9667188561, 6.24296804015908e-05, ]
  - [25800, -49126.6061643473, 900.387555838818, -48226.2186085085, 597.247815082504, 52.6547, 52.6547, 52.6547, 145986.073631469, -207.71301730691, -110.850086795886, -103.641095137435, -408.647869987408, -50008.9504800414, 6.78645934153687e-05, ]
  - [25900, -49116.7000163034, 900.537407288904, -48216.1626090145, 597.34721500265, 52.6547, 52.6547, 52.6547, 145986.073631469, 473.51684474232, 302.75476335615, 951.656237603413, 166.139533267395, -50014.4223569696, 7.36628641684442e-05, ]
  - [26000, -49126.4544547076, 908.711335051213, -48217.7431196564, 602.769169654314, 52.6547, 52.6547, 52.6547, 145986.073631469, -268.845487284627, -147.346940218919, -223.154385959062, -436.035135675909, -50008.2569338598, 7.98415319347201e-05, ]
  - [26100, -49121.8172156759, 901.805556981137, -48220.0116586948, 598.188407917825, 52.6547, 52.6547, 52.6547, 145986.073631469, -424.812786882051, -563.814046906596, -662.528431233088, -48.0958825064695, -50017.4042625105, 8.64180886124637e-05, ]
  - [26200, -49124.0861722388, 893.68019526143, -48230.4059769773, 592.798668241415, 52.6547, 52.6547, 52.6547, 145986.073631469, -171.600117003102, -245.466418420716, 209.035556979521, -478.369489568113, -50016.1518002264, 9.34104802368714e-05, ]
  - [26300, -49119.578778684, 898.345334467804, -48221.2334442162, 595.893162584429, 52.6547, 52.6547, 52.6547, 145986.073631469, 723.915097681723, 629.145664778841, 507.886702588796, 1034.71292567753, -50012.4104969869, 0.000100837108331577, ]
  - [26400, -49128.2301054564, 915.637924348991, -48212.5921811074, 607.36373595773, 52.6547, 52.6547, 52.6547, 145986.073631469, -577.994277894701, -989.589241884057, -258.425823086819, -485.967768713228, -50005.0352596322, 0.000108716831101108, ]
  - [26500, -49119.3510521621, 918.937877990546, -48200.4131741715, 609.552671255105, 52.6547, 52.6547, 52.6547, 145986.073631469, 835.290639957365, 664.582212973189, 1086.21721946968, 755.072487429223, -50019.983808222, 0.000117068964466276, ]
  - [26600, -49122.5083038645, 911.17167675721, -48211.3366271073, 604.401171006103, 52.6547, 52.6547, 52.6547, 145986.073631469, 155.404957298714, -141.857076368325, 195.041720832031, 413.03022743243, -50030.3676159703, 0.000125913282944476, ]
  - [26700, -49129.5311560005, 902.202004069645, -48227.3291519308, 598.451380407695, 52.6547, 52.6547, 52.6547, 145986.073631469, -617.851245178288, -387.43874277739, -700.494109808609, -765.620882948865, -50030.7804174983, 0.000135270020376872, ]
  - [26800, -49126.2017294382, 906.131068683911, -48220.0706607543, 601.057619511036, 52.6547, 52.6547, 52.6547, 145986.073631469, -359.073138600117, -44.4581607355051, -577.780966649196, -454.98028841565, -50036.3800469757, 0.000145159870504403, ]
  - [26900, -49123.0783053491, 907.185346779269, -48215.8929585698, 601.756946467366, 52.6547, 52.6547, 52.6547, 145986.073631469, -164.651452590959, -228.857879477391, -262.429171214916, -2.66730708057021, -50039.4191279819, 0.000155603987394582, ]
  - [27000, -49120.3243377871, 911.846678178931, -48208.4776596081, 604.848915004437, 52.6547, 52.6547, 52.6547, 145986.073631469, 209.613460546423, 393.952012137646, 128.397033153403, 106.491336348225, -50044.7217757746, 0.00016662398572099, ]
  - [27100, -49114.6734773931, 917.390205386472, -48197.2832720066, 608.526064350942, 52.6547, 52.6547, 52.6547, 145986.073631469, 815.459886750064, 537.828804664517, 976.136936996286, 932.413918589386, -50041.1738483283, 0.000178241940897419, ]
  - [27200, -49122.4523325773, 903.780828668036, -48218.6715039093, 599.498651147582, 52.6547, 52.6547, 52.6547, 145986.073631469, 502.765577520956, 348.412610218271, 515.519622478693, 644.364499865898, -50018.623810603, 0.000190480389068545, ]
  - [27300, -49124.989531668, 903.134719597865, -48221.8548120701, 599.070072111851, 52.6547, 52.6547, 52.6547, 145986.073631469, -232.235479114111, -236.25544266978, -234.588016450709, -225.862978221838, -50004.3174805018, 0.000203362326959055, ]
  - [27400, -49131.8093195809, 908.591316949228, -48223.2180026317, 602.689558881469, 52.6547, 52.6547, 52.6547, 145986.073631469, -557.187470929588, -533.130576646019, -543.536266372436, -594.895569770307, -50008.5050766523, 0.000216911211583103, ]
  - [27500, -49128.0232841715, 899.253605863895, -48228.7696783076, 596.495639932432, 52.6547, 52.6547, 52.6547, 145986.073631469, -155.891910053658, -174.128519119275, -55.7923589051575, -237.754852136543, -50022.1188169324, 0.000231150959815979, ]
  - [27600, -49128.619877614, 904.445540354798, -48224.1743372592, 599.939569727591, 52.6547, 52.6547, 52.6547, 145986.073631469, -701.276705832308, -563.235984973109, -676.6810231035, -863.913109420315, -50028.7598345753, 0.00024610594782986, ]
  - [27700, -49118.5447830484, 907.195197060259, -48211.3495859882, 601.763480385745, 52.6547, 52.6547, 52.6547, 145986.073631469, 280.503820240509, 406.037344994672, 519.771903146504, -84.2977874196466, -50027.9984316184, 0.000261801010395495, ]
  - [27800, -49125.2404471019, 906.646531782233, -48218.5939153197, 601.399538062922, 52.6547, 52.6547, 52.6547, 145986.073631469, 405.471184011454, 99.360819881146, 676.810915755587, 440.241816397628, -50027.4333183718, 0.000278261440051671, ]
  - [27900, -49120.3866085996, 901.602652144169, -48218.7839564554, 598.053816463553, 52.6547, 52.6547, 52.6547, 145986.073631469, 374.549805233717, -11.3591904035309, 354.720540162478, 780.288065942206, -50043.0007319588, 0.000295512986144304, ]
  - [28000, -49131.4436891183, 901.018236969094, -48230.4254521492, 597.666160410167, 52.6547, 52.6547, 52.6547, 145986.073631469, -574.009881580133, -194.978314251113, -614.685314430604, -912.366016058684, -50035.6287670044, 0.00031358185373696, ]
  - [28100, -49127.2962016991, 903.786116280386, -48223.5100854187, 599.502158542706, 52.6547, 52.6547, 52.6547, 145986.073631469, -234.465612745803, -685.143618036222, 186.033594366905, -204.286814568094, -50012.7319075309, 0.000332494702394641, ]
  - [28200, -49121.4679193987, 907.423537780234, -48214.0443816185, 601.914944047382, 52.6547, 52.6547, 52.6547, 145986.073631469, 485.855443795944, 577.402288695621, 618.930097129345, 261.233945562872, -50017.1965088601, 0.000352278644842627, ]
  - [28300, -49131.5189729232, 906.223263414727, -48225.2957095084, 601.1187744006, 52.6547, 52.6547, 52.6547, 145986.073631469, -408.663735065143, -536.517851882771, -233.892720628894, -455.580632683768, -50030.3264257886, 0.000372961245502164, ]
  - [28400, -49124.4204707239, 893.580278009427, -48230.8401927145, 592.732390825584, 52.6547, 52.6547, 52.6547, 145986.073631469, -85.5141675899643, 89.3332204956405, -138.834483539909, -207.041239725626, -50047.8199066334, 0.000394570518904788, ]
  - [28500, -49122.1236640513, 902.970934546114, -48219.1527295052, 598.961429712623, 52.6547, 52.6547, 52.6547, 145986.073631469, -98.7358887866755, -130.999739518486, -32.0203217515385, -133.187605090002, -50047.6027411753, 0.000417134927987054, ]
  - [28600, -49128.1757259788, 904.376984648549, -48223.7987413303, 599.89409514778, 52.6547, 52.6547, 52.6547, 145986.073631469, -384.438646766395, -489.111903934027, -133.685368619016, -530.518667746144, -50035.5122952761, 0.000440683382267422, ]
  - [28700, -49132.1314558621, 889.069331785044, -48243.062124077, 589.74017624088, 52.6547, 52.6547, 52.6547, 145986.073631469, -828.612103122859, -1186.65249775697, -485.08308498372, -814.100726627892, -50032.1929768437, 0.000465245235907057, ]
  - [28800, -49126.8382800936, 899.292761352577, -48227.5455187411, 596.521612670408, 52.6547, 52.6547, 52.6547, 145986.073631469, -211.406482453867, -149.469625726065, -93.2030286078408, -391.546793027693, -50017.8504929866, 0.000490850285656287, ]
  - [28900, -49126.4275731645, 896.144401489622, -48230.2831716749, 594.433233019834, 52.6547, 52.6547, 52.6547, 145986.073631469, -357.816433073213, -526.649139766936, -457.217265292752, -89.5828941599497, -50024.8010830637, 0.000517528768688429, ]
  - [29000, -49126.2550096763, 904.29625614001, -48221.9587535363, 599.84054606769, 52.6547, 52.6547, 52.6547, 145986.073631469, -96.2214560446241, -356.469245921, 548.277286052591, -480.472408265463, -50031.8518435679, 0.00054531136032273, ]
  - [29100, -49116.7145257763, 895.872796935779, -48220.8417288405, 594.253071460184, 52.6547, 52.6547, 52.6547, 145986.073631469, 751.890750196381, 760.552152506746, 684.460535650787, 810.659562431608, -50032.7762515045, 0.000574229171638096, ]
  - [29200, -49125.8922938489, 914.409211365191, -48211.4830824837, 606.548702320071, 52.6547, 52.6547, 52.6547, 145986.073631469, -3.87855209935625, 144.617102372515, -195.182074326688, 38.9293156560992, -50011.2320920125, 0.000604313746979337, ]
  - [29300, -49122.8588478125, 903.63955215432, -48219.2192956582, 599.404939180338, 52.6547, 52.6547, 52.6547, 145986.073631469, 189.383615037199, 141.721616341521, 117.666743195316, 308.762485574766, -50013.0434693094, 0.000635597061357593, ]
  - [29400, -49111.3393065246, 903.965613565965, -48207.3736929586, 599.621223228718, 52.6547, 52.6547, 52.6547, 145986.073631469, 1857.80997674072, 1928.48682665939, 1990.41934448241, 1654.52375908037, -50014.7649163229, 0.000668111517746635, ]
  - [29500, -49119.9275211843, 907.859676238463, -48212.0678449458, 602.204244737469, 52.6547, 52.6547, 52.6547, 145986.073631469, 702.632340370665, 720.109035572891, 789.566526015529, 598.221459523571, -50026.8555198257, 0.000701889944276683, ]
  - [29600, -49119.7469124769, 901.083971485156, -48218.6629409917, 597.709763629513, 52.6547, 52.6547, 52.6547, 145986.073631469, 853.511617898446, 724.857727687551, 770.225351267704, 1065.45177474009, -50038.7138311756, 0.000736965591327429, ]
  - [29700, -49120.2816393357, 900.221063746237, -48220.0605755895, 597.13737704071, 52.6547, 52.6547, 52.6547, 145986.073631469, 484.873095610744, 105.97341488838, 895.236574526363, 453.409297417487, -50025.9023113142, 0.000773372128521878, ]
  - [29800, -49128.8399655549, 898.562088971045, -48230.2778765838, 596.036940841503, 52.6547, 52.6547, 52.6547, 145986.073631469, -177.870215000864, -545.73301634999, -9.52456175045513, 21.6469330978525, -50033.804729485, 0.00081114364162266, ]
  - [29900, -49128.694211546, 897.757941430197, -48230.9362701158, 595.5035312462, 52.6547, 52.6547, 52.6547, 145986.073631469, -465.34515739602, -386.304299404957, -466.376499333427, -543.354673449675, -50047.9077609059, 0.000850314629332433, ]
  - [30000, -49124.5786915191, 900.54986592062, -48224.0288255984, 597.355479100174, 52.6547, 52.6547, 52.6547, 145986.073631469, 85.8472350704578, -80.9569101819233, -23.4308162692328, 361.929431662527, -50058.2734460163, 0.000890920000000001, ]
  - [30100, -49120.6779930623, 908.490975171571, -48212.1870178907, 602.622999867988, 52.6547, 52.6547, 52.6547, 145986.073631469, 588.120425331468, 253.241196922666, 935.847135494408, 575.27294357733, -50049.7256330345, 0.000932995068233718, ]
  - [30200, -49128.3514078003, 904.114834002404, -48224.2365737979, 599.72020458297, 52.6547, 52.6547, 52.6547, 145986.073631469, -37.0369609706627, 48.2008820893081, -9.28585203634947, -150.025912964948, -50045.4361346956, 0.000976575551423828, ]
  - [30300, -49125.7676112863, 909.172307791586, -48216.5953034947, 603.074943496051, 52.6547, 52.6547, 52.6547, 145986.073631469, 31.9585724518314, -4.6151863032303, 437.484116849282, -336.993213190557, -50039.5843628323, 0.00102169756617526, ]
  - [30400, -49115.6595637374, 896.983190771817, -48218.6763729656, 594.989621280486, 52.6547, 52.6547, 52.6547, 145986.073631469, 1065.54383470039, 1053.0571281236, 1045.1079030968, 1098.46647288077, -50040.3200208411, 0.00106839762465251, ]
  - [30500, -49131.1790076216, 911.314984246457, -48219.8640233752, 604.496230166221, 52.6547, 52.6547, 52.6547, 145986.073631469, -927.67499220155, -1411.91076621286, -344.504453875939, -1026.60975651585, -50048.5661929219, 0.00111671263083812, ]
  - [30600, -49130.6521343381, 909.990921636159, -48220.661212702, 603.617948923988, 52.6547, 52.6547, 52.6547, 145986.073631469, -96.5008162216671, 200.787189156273, -718.751528308555, 228.461890487279, -50041.5955403225, 0.00116667987670637, ]
  - [30700, -49129.4440888359, 908.41784234101, -48221.0262464949, 602.574489176142, 52.6547, 52.6547, 52.6547, 145986.073631469, -685.518714045199, -387.566775338476, -650.660641287463, -1018.32872550966, -50045.2939676812, 0.00121833703831365, ]
  - [30800, -49124.8116074458, 905.515787092055, -48219.2958203537, 600.649489052087, 52.6547, 52.6547, 52.6547, 145986.073631469, 388.986261574148, 522.479275197724, 496.641211281077, 147.838298243647, -50025.1884422603, 0.00127172217180712, ]
  - [30900, -49132.1384183111, 914.743135541313, -48217.3952827698, 606.770201921325, 52.6547, 52.6547, 52.6547, 145986.073631469, -600.241999293327, -664.70888669503, -588.391562668196, -547.625548516755, -50040.6360461572, 0.00132687370935312, ]
  - [31000, -49123.6506046302, 895.543978466461, -48228.1066261638, 594.034958591914, 52.6547, 52.6547, 52.6547, 145986.073631469, 233.191978961921, 196.339462721608, -79.2123317582245, 582.448805922376, -50041.9457044736, 0.00138383045498687, ]
  - [31100, -49119.8656720904, 890.531226842484, -48229.3344452479, 590.709884921629, 52.6547, 52.6547, 52.6547, 145986.073631469, -49.7873924738377, -117.777064695638, -474.885743858323, 443.300631132452, -50061.3770580535, 0.00144263158038501, ]
  - [31200, -49124.6726737299, 917.957629866593, -48206.7150438633, 608.902450084817, 52.6547, 52.6547, 52.6547, 145986.073631469, -15.422727937682, 354.04884214966, -201.417633612796, -198.899392349917, -50046.6919529573, 0.00150331662056234, ]
  - [31300, -49120.1225257816, 908.017455177568, -48212.1050706041, 602.308903143769, 52.6547, 52.6547, 52.6547, 145986.073631469, 435.891705325918, 253.968889920852, 345.798056208064, 707.908169848839, -50036.0282482842, 0.00156592546949443, ]
  - [31400, -49124.5192692161, 905.257058258941, -48219.2622109572, 600.477868254716, 52.6547, 52.6547, 52.6547, 145986.073631469, -94.1037931220649, 38.66156046401, -130.966006043893, -190.006933786312, -50019.3488406392, 0.00163049837566735, ]
  - [31500, -49131.4639992769, 906.343439189021, -48225.1205600879, 601.198489761122, 52.6547, 52.6547, 52.6547, 145986.073631469, -945.290497764618, -951.463925461482, -1400.35202680311, -484.055541029267, -50026.1906045287, 0.00169707593755625, ]
  - [31600, -49123.3533055123, 908.193705292731, -48215.1596002196, 602.425813906814, 52.6547, 52.6547, 52.6547, 145986.073631469, -34.4566426336055, -281.97294950731, 171.068678568485, 7.53434303801245, -50027.3023185788, 0.00176569909903396, ]
  - [31700, -49126.1555890495, 898.26984738467, -48227.8857416648, 595.843090262597, 52.6547, 52.6547, 52.6547, 145986.073631469, -78.0476855324386, -350.416511558263, 176.085650806144, -59.8121958451979, -50038.7569320844, 0.0018364091447113, ]
[...]
  - [232600, -49123.5004340369, 899.536433136323, -48223.9640009006, 596.683245779945, 52.6547, 52.6547, 52.6547, 145986.073631469, -69.7050545966306, -187.34488770092, -146.458548333951, 124.688272244979, -50028.012874966, 0.000216911211583102, ]
  - [232700, -49130.4774674438, 901.003850680077, -48229.4736167637, 597.656617653132, 52.6547, 52.6547, 52.6547, 145986.073631469, -1015.01566825241, -1040.73261920331, -756.468770091515, -1247.8456154624, -50031.4028443336, 0.000203362326959055, ]
  - [232800, -49119.4688341618, 900.135762815003, -48219.3330713468, 597.080794967276, 52.6547, 52.6547, 52.6547, 145986.073631469, 265.672592536961, -6.51132438893464, 316.971179407749, 486.557922592073, -50035.6928929632, 0.000190480389068545, ]
  - [232900, -49119.6709922073, 905.099119746106, -48214.5718724612, 600.373103999484, 52.6547, 52.6547, 52.6547, 145986.073631469, 495.525467693529, 678.126710807613, 199.078291103541, 609.371401169437, -50050.4191541113, 0.000178241940897418, ]
  - [233000, -49128.3213870455, 902.240005655912, -48226.0813813896, 598.476587735607, 52.6547, 52.6547, 52.6547, 145986.073631469, -416.275377848065, -760.449478712472, -211.579796407072, -276.796858424651, -50046.7559707448, 0.000166623985720989, ]
  - [233100, -49122.407164323, 899.109868576849, -48223.2972957461, 596.40029567753, 52.6547, 52.6547, 52.6547, 145986.073631469, 235.195664429333, 170.830328999477, -46.2715754011766, 581.028239689698, -50035.5741769314, 0.000155603987394581, ]
  - [233200, -49123.6843698006, 899.577692072294, -48224.1066777283, 596.710613782981, 52.6547, 52.6547, 52.6547, 145986.073631469, -246.420883805225, -649.377800511364, 200.318412882469, -290.203263786783, -50027.2157470213, 0.000145159870504403, ]
  - [233300, -49130.4734018552, 900.392309190654, -48230.0810926646, 597.250968090317, 52.6547, 52.6547, 52.6547, 145986.073631469, -510.833167954045, -232.878408462782, -893.536148002436, -406.084947396917, -50037.1394836315, 0.000135270020376871, ]
  - [233400, -49117.1318239121, 905.244254337514, -48211.8875695746, 600.469375118569, 52.6547, 52.6547, 52.6547, 145986.073631469, 1218.76324962305, 1440.21986705052, 1174.12011681138, 1041.94976500724, -50039.9889880363, 0.000125913282944476, ]
  - [233500, -49126.720195988, 905.523669576292, -48221.1965264117, 600.654717685532, 52.6547, 52.6547, 52.6547, 145986.073631469, -595.991804058837, -865.245994990161, -551.887480248782, -370.841936937565, -50053.3358915906, 0.000117068964466275, ]
  - [233600, -49128.7020885636, 901.622888046842, -48227.0792005168, 598.06723940413, 52.6547, 52.6547, 52.6547, 145986.073631469, -1002.51024846668, -321.229206044848, -1273.24963216079, -1413.05190719439, -50042.8456927432, 0.000108716831101108, ]
  - [233700, -49133.8283085529, 910.832144785607, -48222.9961637672, 604.175951624877, 52.6547, 52.6547, 52.6547, 145986.073631469, -792.261353223128, -751.612412293484, -714.910286004738, -910.261361371161, -50021.4557993365, 0.000100837108331576, ]
  - [233800, -49137.2089867246, 909.539869220331, -48227.6691175042, 603.318755462135, 52.6547, 52.6547, 52.6547, 145986.073631469, -1712.9889295582, -1895.0947922209, -1727.78846109517, -1516.08353535852, -50016.351815392, 9.34104802368709e-05, ]
  - [233900, -49121.6079246944, 907.832190541303, -48213.7757341531, 602.186012841139, 52.6547, 52.6547, 52.6547, 145986.073631469, 302.549072682423, 542.193956521721, -68.9505705671191, 434.403832092665, -50015.1730365805, 8.64180886124633e-05, ]
  - [234000, -49126.8137288285, 887.622622227288, -48239.1911066012, 588.780540452017, 52.6547, 52.6547, 52.6547, 145986.073631469, -106.450453802778, 185.608656037272, -537.09153851353, 32.1315210679216, -50028.1533849811, 7.98415319347196e-05, ]
  - [234100, -49128.2162818399, 898.39864793123, -48229.8176339087, 595.92852663332, 52.6547, 52.6547, 52.6547, 145986.073631469, -370.571306854397, -363.773509202759, -341.370902023286, -406.569509337142, -50015.0285073657, 7.36628641684439e-05, ]
  - [234200, -49127.4414490548, 895.720744980356, -48231.7207040744, 594.152211894138, 52.6547, 52.6547, 52.6547, 145986.073631469, -238.603580808801, -540.272469665706, 81.8542703566524, -257.39254311735, -50006.7574030517, 6.78645934153684e-05, ]
  - [234300, -49133.7366296633, 896.714856188527, -48237.0217734748, 594.811628767659, 52.6547, 52.6547, 52.6547, 145986.073631469, -1475.26543600189, -1698.3109137048, -1484.82307580651, -1242.66231849435, -50017.8910738564, 6.24296804015905e-05, ]
  - [234400, -49121.7415771247, 900.648898551517, -48221.0926785732, 597.421169726441, 52.6547, 52.6547, 52.6547, 145986.073631469, 159.312385492838, 42.6606347118867, -90.4908538447875, 525.767375611414, -50024.7988210432, 5.73415368019447e-05, ]
  - [234500, -49123.966003423, 914.789487547415, -48209.1765158755, 606.800948275148, 52.6547, 52.6547, 52.6547, 145986.073631469, 142.928124659251, 52.33435185888, -28.0185751476132, 404.468597266486, -50013.8081126747, 5.25840233992875e-05, ]
  - [234600, -49116.0929478564, 903.801710167948, -48212.2912376885, 599.512502327685, 52.6547, 52.6547, 52.6547, 145986.073631469, 1168.20411594455, 1407.04022679507, 1216.15592689058, 881.416194148004, -49998.030684516, 4.81414480766631e-05, ]
  - [234700, -49124.2868512943, 917.427928125629, -48206.8589231687, 608.55108671314, 52.6547, 52.6547, 52.6547, 145986.073631469, -296.542429598402, -439.88224976557, -685.68945125112, 235.94441222149, -50005.3628306758, 4.39985636403036e-05, ]
  - [234800, -49118.1839619634, 903.036527675678, -48215.1474342877, 599.004939147047, 52.6547, 52.6547, 52.6547, 145986.073631469, 377.915349518611, 101.941877165026, 614.10927196194, 417.694899428873, -50025.0753086626, 4.01405654714093e-05, ]
  - [234900, -49121.2888566462, 900.675520901866, -48220.6133357443, 597.438828944935, 52.6547, 52.6547, 52.6547, 145986.073631469, 180.760907375832, 125.312057325803, -90.0191840253957, 506.989848827092, -50017.9499009402, 3.65530890046418e-05, ]
  - [235000, -49118.3828519324, 907.981223599978, -48210.4016283324, 602.284869903402, 52.6547, 52.6547, 52.6547, 145986.073631469, 378.81609771278, 400.587558380258, 470.809640345402, 265.051094412678, -50022.5816517142, 3.32222070312498e-05, ]
  - [235100, -49122.7614752118, 907.37163934926, -48215.3898358625, 601.880518622125, 52.6547, 52.6547, 52.6547, 145986.073631469, 424.255644626552, 461.132748414965, 465.734242174278, 345.899943290415, -50024.0136528532, 3.01344268247407e-05, ]
  - [235200, -49124.6733273519, 906.813981438174, -48217.8593459137, 601.51061127856, 52.6547, 52.6547, 52.6547, 145986.073631469, 343.519466730738, 106.904591498572, 338.385122776678, 585.268685916963, -50020.9280852569, 2.72766870869938e-05, ]
  - [235300, -49135.1869241932, 908.015007145858, -48227.1719170474, 602.307279307922, 52.6547, 52.6547, 52.6547, 145986.073631469, -1460.61006533754, -1447.55077664336, -1796.04242134822, -1138.23699802103, -50030.9282000752, 2.46363547127045e-05, ]
  - [235400, -49128.8081927894, 900.366538990182, -48228.4416537992, 597.233874122473, 52.6547, 52.6547, 52.6547, 145986.073631469, -487.262833748184, -334.902246158463, -890.853148283734, -236.033106802354, -50021.9184609169, 2.22012213700348e-05, ]
  - [235500, -49117.7072294137, 894.558733239748, -48223.148496174, 593.381422728208, 52.6547, 52.6547, 52.6547, 145986.073631469, 548.850073035498, 699.819904824494, 448.094470307571, 498.635843974432, -50022.6985587072, 1.99594998953343e-05, ]
  - [235600, -49124.6501703756, 918.430491949364, -48206.2196784263, 609.216110401354, 52.6547, 52.6547, 52.6547, 145986.073631469, 468.043565586878, 821.863632758218, 468.731157209976, 113.535906792438, -50005.9123927043, 1.78998204997852e-05, ]
  - [235700, -49134.6233795686, 908.841380409415, -48225.7819991592, 602.855431737286, 52.6547, 52.6547, 52.6547, 145986.073631469, -1126.83820481838, -848.740264161828, -1273.21223081586, -1258.56211947746, -50032.4525595409, 1.6011226785813e-05, ]
  - [235800, -49118.3048759037, 897.937863401396, -48220.3670125023, 595.622877635971, 52.6547, 52.6547, 52.6547, 145986.073631469, 669.461496970827, 638.072050889797, 779.885276378658, 590.427163644024, -50041.759061958, 1.42831715710918e-05, ]
  - [235900, -49110.8650661247, 905.617644012469, -48205.2474221122, 600.717053094675, 52.6547, 52.6547, 52.6547, 145986.073631469, 1070.21959762211, 1331.92349710393, 911.942378319934, 966.792917442473, -50025.8673248377, 1.27055125179639e-05, ]
  - [236000, -49120.6353417393, 907.561642808634, -48213.0736989306, 602.006552295329, 52.6547, 52.6547, 52.6547, 145986.073631469, 388.877169771036, 681.848247488156, 22.7876999849678, 461.995561839986, -50007.6636642852, 1.12685075660799e-05, ]
  - [236100, -49114.3156510289, 905.473282034004, -48208.8423689949, 600.621294467559, 52.6547, 52.6547, 52.6547, 145986.073631469, 1015.84227709029, 1024.22697496813, 1111.4606104058, 911.839245896942, -50020.9712642557, 9.96281016605479e-06, ]
  - [236200, -49122.3287730257, 894.66642050282, -48227.6623525228, 593.452854171441, 52.6547, 52.6547, 52.6547, 145986.073631469, -107.523599340001, -537.841785903086, 301.619836725775, -86.3488488426884, -50014.6068871798, 8.77946431192305e-06, ]
  - [236300, -49126.189911509, 900.117119303608, -48226.0727922054, 597.06842829653, 52.6547, 52.6547, 52.6547, 145986.073631469, 258.882049308095, 227.588986548048, 202.403149565695, 346.654011810545, -50006.2430319423, 7.70989937016554e-06, ]
  - [236400, -49137.9146059539, 902.77089678369, -48235.1437091702, 598.828740054968, 52.6547, 52.6547, 52.6547, 145986.073631469, -1227.35789197911, -1664.09070322688, -963.510857658101, -1054.47211505235, -50016.6541260748, 6.74592470306788e-06, ]
  - [236500, -49131.6560553187, 904.923639267553, -48226.7324160512, 600.256703754138, 52.6547, 52.6547, 52.6547, 145986.073631469, -785.111629705556, -544.574365732538, -547.904813617624, -1262.85570976651, -50026.2773765036, 5.87972408415909e-06, ]
  - [236600, -49120.1500980052, 917.024605010172, -48203.1254929951, 608.283553196137, 52.6547, 52.6547, 52.6547, 145986.073631469, 924.835387629064, 1152.11641058036, 830.618855577779, 791.770896729055, -50022.1422204279, 5.10384990346715e-06, ]
  - [236700, -49121.021316038, 905.296206983434, -48215.7251090546, 600.503836505849, 52.6547, 52.6547, 52.6547, 145986.073631469, 335.862613282916, 367.282833379834, 257.00208314959, 383.302923319328, -50028.9303564513, 4.41121716031669e-06, ]
  - [236800, -49126.6724924804, 916.663961603432, -48210.008530877, 608.044330113474, 52.6547, 52.6547, 52.6547, 145986.073631469, -182.843093360648, -715.51190203043, -45.4644185788521, 212.447040527341, -50007.6815886386, 3.79509724138197e-06, ]
  - [236900, -49128.1260114118, 899.831852918208, -48228.2941584936, 596.879204529174, 52.6547, 52.6547, 52.6547, 145986.073631469, -630.252487107533, -1032.89049978047, -407.30421092928, -450.562750612857, -50008.6550232122, 3.24911148169665e-06, ]
  - [237000, -49114.327324216, 904.215610382027, -48210.111713834, 599.787051877951, 52.6547, 52.6547, 52.6547, 145986.073631469, 991.204283366675, 1219.12232692087, 977.95063945841, 776.539883720742, -50005.7220284819, 2.76722450630996e-06, ]
  - [237100, -49127.9621331451, 907.293931185419, -48220.6682019597, 601.828973006276, 52.6547, 52.6547, 52.6547, 145986.073631469, -606.077905308628, -746.052239778653, -653.482658581833, -418.698817565399, -50024.6336763192, 2.34373735026696e-06, ]
  - [237200, -49130.9078622569, 898.659110282557, -48232.2487519743, 596.10129731327, 52.6547, 52.6547, 52.6547, 145986.073631469, -690.260449462891, -1241.56834064299, -353.726724993953, -475.486282751724, -50015.3690081916, 1.97328035457889e-06, ]
  - [237300, -49136.7133755204, 910.504216641577, -48226.2091588788, 603.958429329887, 52.6547, 52.6547, 52.6547, 145986.073631469, -1331.15855957126, -1792.74377148948, -953.333290355058, -1247.39861686925, -50014.6018381075, 1.65080583583743e-06, ]
  - [237400, -49128.5647846179, 900.012223709864, -48228.552560908, 596.998848631897, 52.6547, 52.6547, 52.6547, 145986.073631469, 66.7149665156552, -85.6886449157597, 289.930291514197, -4.09674705146941, -50005.7775424031, 1.37158052711493e-06, ]
  - [237500, -49126.5809014429, 903.587891558871, -48222.9930098841, 599.370671516866, 52.6547, 52.6547, 52.6547, 145986.073631469, -435.044564642091, -162.847812467699, -339.372321905749, -802.913559552832, -50002.2888360959, 1.13117778778074e-06, ]
  - [237600, -49128.0331340655, 908.769421897076, -48219.2637121684, 602.807699997778, 52.6547, 52.6547, 52.6547, 145986.073631469, -208.040990410503, -179.312220078947, -233.105317354874, -211.70543379769, -50002.8170344122, 9.25469579851505e-07, ]
  - [237700, -49132.6632979248, 906.050320671136, -48226.6129772537, 601.004057493337, 52.6547, 52.6547, 52.6547, 145986.073631469, -1173.83564081804, -1534.97057581234, -1075.81192128037, -910.724425361405, -50010.7664399021, 7.50618208481688e-07, ]
  - [237800, -49120.6599079311, 898.171684231683, -48222.4882236994, 595.777976381066, 52.6547, 52.6547, 52.6547, 145986.073631469, 29.9265847734654, -24.5418939985667, 301.247041887669, -186.92539356871, -50014.2675681434, 6.03067824188189e-07, ]
  - [237900, -49122.9187458857, 890.300873816002, -48232.6178720697, 590.557086450713, 52.6547, 52.6547, 52.6547, 145986.073631469, 157.646861039777, 476.856197730858, 253.735186625564, -257.65080123709, -50013.627336766, 4.79535684391034e-07, ]
  - [238000, -49132.4357936899, 909.360222692805, -48223.0755709971, 603.1995917805, 52.6547, 52.6547, 52.6547, 145986.073631469, -691.606209155315, -422.126789542905, -529.241953043917, -1123.44988487912, -50009.9429167398, 3.77003171839991e-07, ]
  - [238100, -49122.9874169453, 901.031860511143, -48221.9555564341, 597.675197219561, 52.6547, 52.6547, 52.6547, 145986.073631469, 326.315022676386, 410.325043811798, 438.059087448868, 130.560936768491, -50005.3515085173, 2.92706567484834e-07, ]
  - [238200, -49125.0549592686, 897.280650482005, -48227.7743087866, 595.186933161167, 52.6547, 52.6547, 52.6547, 145986.073631469, -245.18067086787, -434.157665278463, -95.3998347081418, -205.984512617002, -50018.6892255678, 2.24127575334843e-07, ]
  - [238300, -49122.5649966689, 912.549524224924, -48210.0154724439, 605.315128983724, 52.6547, 52.6547, 52.6547, 145986.073631469, 167.627346199973, 189.333574227842, -39.9082872415689, 353.456751613646, -50018.2516157344, 1.68983596840973e-07, ]
  - [238400, -49135.6784090096, 905.752287566222, -48229.9261214434, 600.806365266719, 52.6547, 52.6547, 52.6547, 145986.073631469, -1251.92025192018, -948.664771967153, -1715.74542438316, -1091.35055941022, -50009.9700919254, 1.25217752321901e-07, ]
  - [238500, -49133.0395152544, 906.184260664336, -48226.85525459, 601.092902977453, 52.6547, 52.6547, 52.6547, 145986.073631469, -1053.01838476142, -989.971734107964, -1084.83859385228, -1084.24482632401, -50000.9407652378, 9.09886469429854e-08, ]
  - [238600, -49122.2188636405, 916.227809402487, -48205.991054238, 607.755020307526, 52.6547, 52.6547, 52.6547, 145986.073631469, 380.292500485626, 316.630758692292, 557.684445850438, 266.562296914144, -50005.9723541994, 6.46598787448784e-08, ]
  - [238700, -49132.4549959654, 919.70767546788, -48212.7473204975, 610.063295661687, 52.6547, 52.6547, 52.6547, 145986.073631469, -1302.67736953644, -1048.52462818685, -1661.36820500353, -1198.13927541894, -50017.87866697, 4.47892862063161e-08, ]
  - [238800, -49122.9883367726, 909.666995352745, -48213.3213414199, 603.403081155367, 52.6547, 52.6547, 52.6547, 145986.073631469, 499.544595379756, 1.10384950897322, 891.588057912013, 605.941878718282, -50003.7449485693, 3.01179328132691e-08, ]
  - [238900, -49120.4355887825, 910.050073270797, -48210.3855155117, 603.657185566384, 52.6547, 52.6547, 52.6547, 145986.073631469, 230.94652456013, 35.480352790009, 253.627496682569, 403.73172420781, -50023.8866924206, 1.95588260943479e-08, ]
  - [239000, -49114.0191768334, 909.653536072384, -48204.365640761, 603.394153304537, 52.6547, 52.6547, 52.6547, 145986.073631469, 1461.04016668962, 1250.06127675869, 1494.5479136468, 1638.51130966338, -50008.1656696044, 1.21853685699994e-08, ]
  - [239100, -49127.2213864277, 910.198819139599, -48217.0225672881, 603.755852128986, 52.6547, 52.6547, 52.6547, 145986.073631469, -93.0089120324077, -178.620349398778, -87.6246504300716, -12.7817362683707, -50001.6514770269, 7.21953805066191e-09, ]
  - [239200, -49111.2931139552, 919.6151181214, -48191.6779958338, 610.001900240796, 52.6547, 52.6547, 52.6547, 145986.073631469, 1039.27507244223, 879.698160695472, 1028.65224131197, 1209.47481531926, -50025.1469147569, 4.01979470665194e-09, ]
  - [239300, -49127.5214917195, 905.233980168587, -48222.287511551, 600.462560025553, 52.6547, 52.6547, 52.6547, 145986.073631469, -450.111781822149, -702.360224417744, -346.283626739468, -301.69149430923, -50025.6740121783, 2.06871232013228e-09, ]
  - [239400, -49118.7949617455, 917.640862551707, -48201.1540991938, 608.692331024999, 52.6547, 52.6547, 52.6547, 145986.073631469, 667.707871358348, 758.836372896551, 276.628469914004, 967.658771264492, -50018.0143301048, 9.60331117066315e-10, ]
  - [239500, -49117.6688817025, 915.521630233976, -48202.1472514685, 607.28659539126, 52.6547, 52.6547, 52.6547, 145986.073631469, 767.225490837481, 1069.6901826109, 921.629218437456, 310.357071464092, -50026.6113382508, 3.87229564589803e-10, ]
  - [239600, -49130.9321209626, 909.807112151078, -48221.1250088115, 603.496023856672, 52.6547, 52.6547, 52.6547, 145986.073631469, -644.285287909665, -678.888802232325, -722.004808388952, -531.962253107718, -50025.1773565374, 1.27312506734493e-10, ]
  - [239700, -49131.5166912303, 915.079721309982, -48216.4369699203, 606.993467018251, 52.6547, 52.6547, 52.6547, 145986.073631469, -600.688819002635, 13.6109893661396, -1286.10227634256, -529.575170031486, -50044.5084146987, 3.03129989146573e-11, ]
  - [239800, -49121.7061162592, 914.081818338101, -48207.6242979211, 606.33153498048, 52.6547, 52.6547, 52.6547, 145986.073631469, 160.655431619835, -245.538801077603, 291.304364405192, 436.200731531917, -50031.5941668437, 4.00518903939475e-12, ]
  - [239900, -49131.0782405006, 912.293933293631, -48218.7843072069, 605.145589628944, 52.6547, 52.6547, 52.6547, 145986.073631469, -452.874093196288, -388.206582078427, -610.352111467655, -360.063586042782, -50028.3038531033, 1.25580539685001e-13, ]
  - [240000, -49129.8390338326, 901.695428195613, -48228.143605637, 598.115356956486, 52.6547, 52.6547, 52.6547, 145986.073631469, -374.068338993482, -48.0344123489818, -639.020464117822, -435.150140513641, -50028.9526986745, 0, ]
...
Loop time of 125.137 on 64 procs for 100000 steps with 11664 atoms

Performance: 69.044 ns/day, 0.348 hours/ns, 799.126 timesteps/s, 9.321 Matom-step/s
70.5% CPU use with 64 MPI tasks x 1 OpenMP threads

MPI task timing breakdown:
Section |  min time  |  avg time  |  max time  |%varavg| %total
---------------------------------------------------------------
Pair    | 59.058     | 62.32      | 65.082     |  13.9 | 49.80
Neigh   | 0          | 0          | 0          |   0.0 |  0.00
Comm    | 17.734     | 19.769     | 23.203     |  24.3 | 15.80
Output  | 0.33821    | 0.37883    | 0.37997    |   0.8 |  0.30
Modify  | 13.359     | 14.209     | 41.372     |  91.0 | 11.35
Other   |            | 28.46      |            |       | 22.74

Nlocal:         182.25 ave         196 max         170 min
Histogram: 2 5 7 12 9 12 6 4 4 3
Nghost:        1275.75 ave        1288 max        1262 min
Histogram: 3 4 4 6 9 12 12 7 5 2
Neighs:        7505.23 ave        8125 max        6979 min
Histogram: 3 5 7 11 12 12 3 6 2 3

Total # of neighbors = 480335
Ave neighs/atom = 41.180984
Neighbor list builds = 0
Dangerous builds = 0
#------------------------------------------------------------------------------#
Total wall time: 0:04:47
