LAMMPS (2 Aug 2023)
OMP_NUM_THREADS environment is not set. Defaulting to 1 thread. (src/comm.cpp:98)
  using 1 OpenMP thread(s) per MPI task
#--------------------------- Simulation variables -----------------------------#
# Initalizes the random number generator.
variable RND equal round(random(0,999,${RANDOM}))
variable RND equal round(random(0,999,1))

# Simulation control parameters.
variable t_eq equal 20000 # Equilibration time.
variable t equal 100000 # Switching time.

#---------------------------- Atomic setup ------------------------------------#
units            metal
# Create atoms.
lattice          bcc ${a}
lattice          bcc 2.9314555555555555
Lattice spacing in x,y,z = 2.9314556 2.9314556 2.9314556
region           sim_box block 0 18 0 18 0 18
create_box       1 sim_box
Created orthogonal box = (0 0 0) to (52.7662 52.7662 52.7662)
  4 by 4 by 4 MPI processor grid
create_atoms     1 box
Created 11664 atoms
  using lattice units in orthogonal box = (0 0 0) to (52.7662 52.7662 52.7662)
  create_atoms CPU = 0.002 seconds

# Define interatomic potential.
pair_style       eam
pair_coeff       * * ../Fe.eam
#----------------------------- Run simulation ---------------------------------#
# Initial temperature to accelerate equilibration.
velocity all create ${T} ${RND} mom yes rot yes dist gaussian
velocity all create 700 ${RND} mom yes rot yes dist gaussian
velocity all create 700 80 mom yes rot yes dist gaussian

# Integrator, Frenkel-Ladd modifier, and thermostat.
fix fe all nve
fix fti all ti/spring ${k} ${t} ${t_eq} function 2
fix fti all ti/spring 4.143081474726754 ${t} ${t_eq} function 2
fix fti all ti/spring 4.143081474726754 100000 ${t_eq} function 2
fix fti all ti/spring 4.143081474726754 100000 20000 function 2
fix ft all langevin ${T} ${T} 0.1 ${RND} zero yes
fix ft all langevin 700 ${T} 0.1 ${RND} zero yes
fix ft all langevin 700 700 0.1 ${RND} zero yes
fix ft all langevin 700 700 0.1 178 zero yes
compute tcom all temp/com
fix_modify ft temp tcom

# Setup thermo output.
variable dE equal pe-f_fti
variable lambda equal f_fti[1]

thermo_style custom step pe ke etotal temp lx ly lz vol press pxx pyy pzz v_dE v_lambda
thermo 100
thermo_modify line yaml
thermo_modify flush yes

# Forward integration.
run ${t_eq}
run 20000

CITE-CITE-CITE-CITE-CITE-CITE-CITE-CITE-CITE-CITE-CITE-CITE-CITE

Your simulation uses code contributions which should be cited:

- ti/spring command: doi:10.1016/j.commatsci.2015.10.050

@article{freitas2016,
  author={Freitas, Rodrigo and Asta, Mark and de Koning, Maurice},
  title={Nonequilibrium Free-Energy Calculation of Solids Using {LAMMPS}},
  journal={Computational Materials Science},
  volume={112},
  pages={333--341},
  year={2016},
  publisher={Elsevier}
}

CITE-CITE-CITE-CITE-CITE-CITE-CITE-CITE-CITE-CITE-CITE-CITE-CITE

Neighbor list info ...
  update: every = 1 steps, delay = 0 steps, check = yes
  max neighbors/atom: 2000, page size: 100000
  master list distance cutoff = 6.409104
  ghost atom cutoff = 6.409104
  binsize = 3.204552, bins = 17 17 17
  1 neighbor lists, perpetual/occasional/extra = 1 0 0
  (1) pair eam, perpetual
      attributes: half, newton on
      pair build: half/bin/atomonly/newton
      stencil: half/bin/3d
      bin: standard
Per MPI rank memory allocation (min/avg/max) = 3.736 | 3.736 | 3.736 Mbytes
---
keywords: ['Step', 'PotEng', 'KinEng', 'TotEng', 'Temp', 'Lx', 'Ly', 'Lz', 'Volume', 'Press', 'Pxx', 'Pyy', 'Pzz', 'v_dE', 'v_lambda', ]
data:
  - [0, -49763.6855645565, 1055.2927497945, -48708.392814762, 700, 52.7662, 52.7662, 52.7662, 146915.445947882, -92204.0361833408, -92121.0365302335, -92256.8699893272, -92234.2020304618, -49763.6855645565, 0, ]
  - [100, -49077.8251174312, 879.348347930295, -48198.4767695009, 583.292023631426, 52.7662, 52.7662, 52.7662, 146915.445947882, -13135.7493974534, -13763.346973267, -12373.5038427775, -13270.3973763158, -49077.8251174312, 0, ]
  - [200, -49011.9262606064, 994.550223632527, -48017.3760369739, 659.708082594464, 52.7662, 52.7662, 52.7662, 146915.445947882, -5262.16905243216, -5215.51359574577, -5564.91552282797, -5006.07803872273, -49011.9262606064, 0, ]
  - [300, -48967.3847581511, 1029.37711935198, -47938.0076387991, 682.809565105702, 52.7662, 52.7662, 52.7662, 146915.445947882, -313.197301931137, -785.464443584285, -199.517941636147, 45.3904794270214, -48967.3847581511, 0, ]
  - [400, -48965.7342652541, 1052.77897858887, -47912.9552866652, 698.332557629832, 52.7662, 52.7662, 52.7662, 146915.445947882, -629.202062082258, -840.191975498297, -404.047330496192, -643.366880252286, -48965.7342652541, 0, ]
  - [500, -48964.9503146289, 1043.87388036169, -47921.0764342672, 692.425600759102, 52.7662, 52.7662, 52.7662, 146915.445947882, 156.04478029802, 115.771770116157, 322.764334881341, 29.5982358965585, -48964.9503146289, 0, ]
  - [600, -48950.7564077083, 1056.35945364587, -47894.3969540624, 700.707569246645, 52.7662, 52.7662, 52.7662, 146915.445947882, 1634.93738874292, 1928.03222655401, 1508.63841086189, 1468.14152881284, -48950.7564077083, 0, ]
  - [700, -48957.5561478409, 1052.21016059196, -47905.345987249, 697.955247544155, 52.7662, 52.7662, 52.7662, 146915.445947882, 817.633031591755, 714.285820416899, 760.671863331225, 977.941411027142, -48957.5561478409, 0, ]
  - [800, -48955.8929639855, 1053.32823334872, -47902.5647306368, 698.696890969528, 52.7662, 52.7662, 52.7662, 146915.445947882, 673.593909019297, 476.132647988614, 871.651449799298, 672.997629269978, -48955.8929639855, 0, ]
  - [900, -48951.1292938142, 1049.82262852237, -47901.3066652918, 696.371542502085, 52.7662, 52.7662, 52.7662, 146915.445947882, 1420.40005354702, 1194.08484346001, 1316.43191985889, 1750.68339732216, -48951.1292938142, 0, ]
  - [1000, -48963.3473370704, 1071.94968589646, -47891.3976511739, 711.048929572994, 52.7662, 52.7662, 52.7662, 146915.445947882, 36.3992380295806, 33.1039196996953, -27.0414013625732, 103.13519575162, -48963.3473370704, 0, ]
  - [1100, -48958.5072948876, 1068.8865800339, -47889.6207148537, 709.01710086555, 52.7662, 52.7662, 52.7662, 146915.445947882, 622.159086899798, 205.117604548688, 894.899282399073, 766.460373751632, -48958.5072948876, 0, ]
  - [1200, -48959.1303689153, 1047.33223312743, -47911.7981357879, 694.719605845835, 52.7662, 52.7662, 52.7662, 146915.445947882, 123.472329716388, -324.867764650253, 629.605646727906, 65.6791070715057, -48959.1303689153, 0, ]
  - [1300, -48956.8074240966, 1055.87033153679, -47900.9370925598, 700.383123279945, 52.7662, 52.7662, 52.7662, 146915.445947882, 345.419217991968, 439.061961203434, 222.498324939918, 374.697367832554, -48956.8074240966, 0, ]
  - [1400, -48973.2334127214, 1041.33529869772, -47931.8981140237, 690.741701040165, 52.7662, 52.7662, 52.7662, 146915.445947882, -1368.18290698121, -1525.37822832014, -1024.04022130363, -1555.13027131987, -48973.2334127214, 0, ]
  - [1500, -48966.2603217505, 1038.87906442776, -47927.3812573228, 689.112424245354, 52.7662, 52.7662, 52.7662, 146915.445947882, -261.436436796694, -23.3467842126437, -518.213274184756, -242.749251992685, -48966.2603217505, 0, ]
  - [1600, -48978.8407505537, 1054.78518000476, -47924.055570549, 699.663317261599, 52.7662, 52.7662, 52.7662, 146915.445947882, -1291.65921394596, -1241.5850211163, -1661.01244332712, -972.380177394447, -48978.8407505537, 0, ]
  - [1700, -48973.7622520373, 1059.13070826909, -47914.6315437682, 702.545806301368, 52.7662, 52.7662, 52.7662, 146915.445947882, -386.414906033708, -803.337600584608, -287.041669244444, -68.8654482720766, -48973.7622520373, 0, ]
  - [1800, -48975.468983893, 1053.85192680302, -47921.61705709, 699.044268906207, 52.7662, 52.7662, 52.7662, 146915.445947882, -1006.64820407166, -1092.65447197784, -1067.19852573166, -860.091614505475, -48975.468983893, 0, ]
  - [1900, -48964.7973890758, 1040.59492195812, -47924.2024671177, 690.250592086919, 52.7662, 52.7662, 52.7662, 146915.445947882, -381.753600700763, 79.2522252901241, -840.945872678283, -383.567154714129, -48964.7973890758, 0, ]
  - [2000, -48968.7540275157, 1048.9753101029, -47919.7787174128, 695.809496668119, 52.7662, 52.7662, 52.7662, 146915.445947882, -475.744911426474, -230.621187962094, -881.761752977007, -314.851793340321, -48968.7540275157, 0, ]
  - [2100, -48969.6412183742, 1061.38610098121, -47908.255117393, 704.0418602625, 52.7662, 52.7662, 52.7662, 146915.445947882, -383.740007621399, -186.691086008224, -260.532719596376, -703.996217259597, -48969.6412183742, 0, ]
  - [2200, -48976.3187174437, 1054.93220229528, -47921.3865151484, 699.760840535003, 52.7662, 52.7662, 52.7662, 146915.445947882, -1486.79786676535, -1774.83407120022, -1070.08779254954, -1615.4717365463, -48976.3187174437, 0, ]
  - [2300, -48965.1291347889, 1055.18666309727, -47909.9424716916, 699.929630248974, 52.7662, 52.7662, 52.7662, 146915.445947882, -306.250388734404, 407.287027096814, -962.405882738817, -363.63231056121, -48965.1291347889, 0, ]
  - [2400, -48970.6608878315, 1043.49552514581, -47927.1653626856, 692.17462902527, 52.7662, 52.7662, 52.7662, 146915.445947882, -924.142108774279, -1055.63347745269, -793.0816931726, -923.71115569755, -48970.6608878315, 0, ]
  - [2500, -48969.2502250564, 1070.29197544269, -47898.9582496137, 709.949332027324, 52.7662, 52.7662, 52.7662, 146915.445947882, -603.403439309396, -987.80767652302, -637.397493159385, -185.005148245777, -48969.2502250564, 0, ]
  - [2600, -48958.7523549833, 1056.07579623192, -47902.6765587514, 700.519412747124, 52.7662, 52.7662, 52.7662, 146915.445947882, 477.837626939659, 67.7749203138622, 471.103844582606, 894.63411592251, -48958.7523549833, 0, ]
  - [2700, -48972.7623435498, 1048.64508868545, -47924.1172548644, 695.590453192027, 52.7662, 52.7662, 52.7662, 146915.445947882, -1120.08182980384, -1181.28419056269, -1094.9847884262, -1083.97651042262, -48972.7623435498, 0, ]
  - [2800, -48965.24816649, 1050.05108545688, -47915.1970810331, 696.523083251496, 52.7662, 52.7662, 52.7662, 146915.445947882, 184.639459767502, 417.352697637002, -173.086488644729, 309.652170310235, -48965.24816649, 0, ]
  - [2900, -48963.0755775676, 1043.51035368684, -47919.5652238807, 692.184465138257, 52.7662, 52.7662, 52.7662, 146915.445947882, -216.053923730184, -418.829196913291, -124.214090526513, -105.118483750743, -48963.0755775676, 0, ]
  - [3000, -48958.1418970529, 1043.53351847743, -47914.6083785754, 692.199830877688, 52.7662, 52.7662, 52.7662, 146915.445947882, 545.495663024514, 244.520902607386, 886.080015713081, 505.886070753079, -48958.1418970529, 0, ]
  - [3100, -48966.3642545358, 1055.13778255738, -47911.2264719784, 699.897206660422, 52.7662, 52.7662, 52.7662, 146915.445947882, -539.884421575097, -1199.75928074886, -545.917656276123, 126.023672299693, -48966.3642545358, 0, ]
  - [3200, -48953.0804728608, 1053.3671901384, -47899.7132827224, 698.722731905881, 52.7662, 52.7662, 52.7662, 146915.445947882, 1147.64811670578, 614.281158026745, 1550.3989009091, 1278.26429118151, -48953.0804728608, 0, ]
  - [3300, -48969.5166759562, 1056.08718877757, -47913.4294871787, 700.526969685198, 52.7662, 52.7662, 52.7662, 146915.445947882, -553.027430879181, -625.540386249036, -623.208812969242, -410.333093419269, -48969.5166759562, 0, ]
  - [3400, -48962.4306267538, 1065.7722799263, -47896.6583468275, 706.951313835606, 52.7662, 52.7662, 52.7662, 146915.445947882, 483.822229975684, 535.224773123815, 532.258707123475, 383.983209679764, -48962.4306267538, 0, ]
  - [3500, -48954.8619364688, 1064.57866779487, -47890.2832686739, 706.159563402217, 52.7662, 52.7662, 52.7662, 146915.445947882, 980.950060753917, 598.041190442913, 932.764774114296, 1412.04421770454, -48954.8619364688, 0, ]
  - [3600, -48954.7022294569, 1060.20080751057, -47894.5014219463, 703.255627788513, 52.7662, 52.7662, 52.7662, 146915.445947882, 905.375253515031, 1088.9914023206, 959.788728665869, 667.345629558621, -48954.7022294569, 0, ]
  - [3700, -48957.8889099026, 1058.95459076008, -47898.9343191425, 702.428983499039, 52.7662, 52.7662, 52.7662, 146915.445947882, 798.258749219438, 492.61209173228, 508.429540733383, 1393.73461519266, -48957.8889099026, 0, ]
  - [3800, -48956.0759321158, 1046.93128686439, -47909.1446452514, 694.453648949813, 52.7662, 52.7662, 52.7662, 146915.445947882, 943.599997557835, 1008.78918704851, 994.033113026672, 827.977692598326, -48956.0759321158, 0, ]
  - [3900, -48965.3619638829, 1056.68366323397, -47908.6783006489, 700.922624937787, 52.7662, 52.7662, 52.7662, 146915.445947882, -209.834994825563, -131.867527776991, -394.459585038396, -103.177871661302, -48965.3619638829, 0, ]
  - [4000, -48962.8844434134, 1062.89435798079, -47899.9900854326, 705.042321887872, 52.7662, 52.7662, 52.7662, 146915.445947882, 127.312632165387, 292.031111396451, -211.503211495584, 301.409996595299, -48962.8844434134, 0, ]
  - [4100, -48966.2993579321, 1056.58007090474, -47909.7192870273, 700.853909758544, 52.7662, 52.7662, 52.7662, 146915.445947882, -683.838189737251, -1205.2677687157, -512.298425433852, -333.948375062199, -48966.2993579321, 0, ]
  - [4200, -48964.8867587735, 1056.01790237325, -47908.8688564003, 700.481010416515, 52.7662, 52.7662, 52.7662, 146915.445947882, -277.541785217714, -127.918157379992, -223.863447722761, -480.843750550381, -48964.8867587735, 0, ]
  - [4300, -48966.2957422633, 1056.52561418396, -47909.7701280794, 700.8177873607, 52.7662, 52.7662, 52.7662, 146915.445947882, 129.113002037758, -39.0142449810416, 243.713179613219, 182.640071481102, -48966.2957422633, 0, ]
  - [4400, -48961.8278666241, 1054.14027735881, -47907.6875892653, 699.235538474853, 52.7662, 52.7662, 52.7662, 146915.445947882, 315.430538151452, 199.699232604892, 469.734728285143, 276.857653564316, -48961.8278666241, 0, ]
  - [4500, -48967.0046587064, 1062.99900383764, -47904.0056548688, 705.11173589627, 52.7662, 52.7662, 52.7662, 146915.445947882, -325.695419158372, 364.732620240857, -346.136747248621, -995.682130467352, -48967.0046587064, 0, ]
  - [4600, -48958.0868499788, 1043.97961691946, -47914.1072330594, 692.495738254552, 52.7662, 52.7662, 52.7662, 146915.445947882, 457.454045013841, 77.015820748186, 617.293275021183, 678.053039272152, -48958.0868499788, 0, ]
  - [4700, -48966.6654326846, 1055.19762101644, -47911.4678116682, 699.936898889284, 52.7662, 52.7662, 52.7662, 146915.445947882, -2.59637343922219, -68.831566360531, 158.102898746185, -97.0604527033166, -48966.6654326846, 0, ]
  - [4800, -48951.1385748629, 1064.95141172324, -47886.1871631396, 706.406813039735, 52.7662, 52.7662, 52.7662, 146915.445947882, 1296.3945971509, 1281.21177027206, 1468.36562901761, 1139.60639216304, -48951.1385748629, 0, ]
  - [4900, -48958.8303439738, 1063.38361611209, -47895.4467278617, 705.366858081245, 52.7662, 52.7662, 52.7662, 146915.445947882, 472.296678802403, 397.581841710061, 542.320262164949, 476.987932532201, -48958.8303439738, 0, ]
  - [5000, -48965.9831144277, 1064.32137896426, -47901.6617354635, 705.988897791689, 52.7662, 52.7662, 52.7662, 146915.445947882, 163.952046193874, 293.757573347267, -133.135451176279, 331.234016410633, -48965.9831144277, 0, ]
  - [5100, -48961.9103342872, 1053.68443503245, -47908.2258992547, 698.933167754964, 52.7662, 52.7662, 52.7662, 146915.445947882, 121.466644442451, -66.3734591822733, 241.454293271017, 189.319099238609, -48961.9103342872, 0, ]
  - [5200, -48961.5001950864, 1068.70571958408, -47892.7944755023, 708.897131961285, 52.7662, 52.7662, 52.7662, 146915.445947882, 501.108387479555, 433.230105702833, 523.198200996616, 546.896855739217, -48961.5001950864, 0, ]
  - [5300, -48971.595166, 1051.92965804675, -47919.6655079533, 697.769183741776, 52.7662, 52.7662, 52.7662, 146915.445947882, -1165.00198334308, -1600.65913698131, -886.184536218924, -1008.16227682901, -48971.595166, 0, ]
  - [5400, -48970.0008505958, 1046.78198190902, -47923.2188686868, 694.354611532206, 52.7662, 52.7662, 52.7662, 146915.445947882, -353.57891710538, -423.076951568042, -144.500394803342, -493.159404944752, -48970.0008505958, 0, ]
  - [5500, -48956.4700334017, 1050.75802730705, -47905.7120060946, 696.992014072084, 52.7662, 52.7662, 52.7662, 146915.445947882, 1194.9519981451, 1428.82532489065, 806.41800561182, 1349.61266393284, -48956.4700334017, 0, ]
  - [5600, -48956.0382811377, 1056.39464843032, -47899.6436327074, 700.730914758225, 52.7662, 52.7662, 52.7662, 146915.445947882, 938.768832304645, 971.878751802176, 938.291608255579, 906.136136856177, -48956.0382811377, 0, ]
  - [5700, -48977.8552461292, 1054.71128856932, -47923.1439575599, 699.614303369653, 52.7662, 52.7662, 52.7662, 146915.445947882, -1809.07410002827, -1343.86922602556, -2070.36706951615, -2012.98600454309, -48977.8552461292, 0, ]
  - [5800, -48967.0671164362, 1044.06032402092, -47923.0067924153, 692.549273134836, 52.7662, 52.7662, 52.7662, 146915.445947882, -522.783286881992, -364.698467401287, -399.109779706824, -804.541613537867, -48967.0671164362, 0, ]
  - [5900, -48971.8671374157, 1054.19806524469, -47917.669072171, 699.273870511273, 52.7662, 52.7662, 52.7662, 146915.445947882, -992.226177046403, -971.853431647506, -866.12692697784, -1138.69817251386, -48971.8671374157, 0, ]
  - [6000, -48968.8532990553, 1062.27459838977, -47906.5787006655, 704.631221068883, 52.7662, 52.7662, 52.7662, 146915.445947882, -692.983624550585, -862.791138762311, -571.173745664005, -644.985989225434, -48968.8532990553, 0, ]
  - [6100, -48953.9119065766, 1059.30701436316, -47894.6048922134, 702.662754196511, 52.7662, 52.7662, 52.7662, 146915.445947882, 1376.01739397189, 1059.5004906355, 1669.92326961537, 1398.62842166479, -48953.9119065766, 0, ]
  - [6200, -48971.8569199609, 1041.02181526359, -47930.8351046973, 690.533760254128, 52.7662, 52.7662, 52.7662, 146915.445947882, -1097.45342153514, -828.327742162328, -1394.07548316958, -1069.95703927352, -48971.8569199609, 0, ]
  - [6300, -48977.2597904713, 1064.84315508291, -47912.4166353884, 706.335003915446, 52.7662, 52.7662, 52.7662, 146915.445947882, -1284.45403000309, -1408.96025198995, -1725.53250855977, -718.869329459564, -48977.2597904713, 0, ]
  - [6400, -48968.89172926, 1046.59754709501, -47922.2941821649, 694.2322716698, 52.7662, 52.7662, 52.7662, 146915.445947882, -754.113773986965, -184.384864102648, -697.225201598172, -1380.73125626007, -48968.89172926, 0, ]
  - [6500, -48953.7063161481, 1067.93479776646, -47885.7715183816, 708.385761753877, 52.7662, 52.7662, 52.7662, 146915.445947882, 963.097319584065, 1277.77685940886, 956.492005222659, 655.023094120671, -48953.7063161481, 0, ]
  - [6600, -48957.2388082623, 1075.51040326343, -47881.7284049989, 713.410835458698, 52.7662, 52.7662, 52.7662, 146915.445947882, 899.868488219097, 1007.6717660028, 1005.01944519805, 686.914253456442, -48957.2388082623, 0, ]
  - [6700, -48957.1528551697, 1074.77319328325, -47882.3796618864, 712.921827089952, 52.7662, 52.7662, 52.7662, 146915.445947882, 552.386043718489, 677.35201875942, 591.144270016445, 388.661842379605, -48957.1528551697, 0, ]
  - [6800, -48962.4216034205, 1060.41735205421, -47902.0042513663, 703.399266774546, 52.7662, 52.7662, 52.7662, 146915.445947882, -32.5086562602666, -215.775166986597, 190.930939527611, -72.6817413218058, -48962.4216034205, 0, ]
  - [6900, -48955.5469158706, 1060.27654733139, -47895.2703685392, 703.30586775708, 52.7662, 52.7662, 52.7662, 146915.445947882, 767.492670617691, 600.607799692577, 401.969655106018, 1299.90055705448, -48955.5469158706, 0, ]
  - [7000, -48961.5988087793, 1061.78516335675, -47899.8136454225, 704.306567532527, 52.7662, 52.7662, 52.7662, 146915.445947882, 548.719374563337, 890.100514856143, 226.257835276941, 529.799773556928, -48961.5988087793, 0, ]
  - [7100, -48966.355463053, 1062.2367516882, -47904.1187113648, 704.606116479561, 52.7662, 52.7662, 52.7662, 146915.445947882, -42.7879019222836, 247.767529897412, -658.063384137901, 281.932148473639, -48966.355463053, 0, ]
  - [7200, -48966.1866639813, 1052.96204281494, -47913.2246211663, 698.453988349671, 52.7662, 52.7662, 52.7662, 146915.445947882, -572.87893201914, -971.272218470152, -574.506849023414, -172.857728563854, -48966.1866639813, 0, ]
  - [7300, -48954.7783421057, 1046.42140083481, -47908.3569412709, 694.115429796145, 52.7662, 52.7662, 52.7662, 146915.445947882, 1004.17338401592, 1127.97244305575, 734.933072524832, 1149.61463646717, -48954.7783421057, 0, ]
  - [7400, -48956.8056308596, 1056.2183583739, -47900.5872724857, 700.613977501228, 52.7662, 52.7662, 52.7662, 146915.445947882, 1031.82037607778, 1227.91102560417, 1106.07178469729, 761.47831793188, -48956.8056308596, 0, ]
  - [7500, -48958.2997155246, 1045.41588909257, -47912.883826432, 693.448450685651, 52.7662, 52.7662, 52.7662, 146915.445947882, 894.269091475334, 1193.07072285072, 501.667161475457, 988.069390099824, -48958.2997155246, 0, ]
  - [7600, -48971.4477917568, 1058.64591503449, -47912.8018767223, 702.224231776869, 52.7662, 52.7662, 52.7662, 146915.445947882, -443.097024780262, 54.0899619778635, -840.525753914136, -542.855282404516, -48971.4477917568, 0, ]
  - [7700, -48965.9265257542, 1056.90136083886, -47909.0251649154, 701.067028775922, 52.7662, 52.7662, 52.7662, 146915.445947882, -475.674416574536, -595.679199100273, -828.638204998416, -2.70584562491746, -48965.9265257542, 0, ]
  - [7800, -48967.0318791887, 1067.39041095353, -47899.6414682352, 708.024657435548, 52.7662, 52.7662, 52.7662, 146915.445947882, -94.8121894456427, -223.371097436275, -458.341411310808, 397.275940410156, -48967.0318791887, 0, ]
  - [7900, -48972.4201206459, 1054.01835025069, -47918.4017703952, 699.154661414247, 52.7662, 52.7662, 52.7662, 146915.445947882, -558.132434559005, -32.9526229576625, -1174.51579519964, -466.928885519711, -48972.4201206459, 0, ]
  - [8000, -48962.6095768071, 1054.5666231827, -47908.0429536244, 699.518343484916, 52.7662, 52.7662, 52.7662, 146915.445947882, -75.5211673386617, 364.83913335336, -558.16003262238, -33.2426027469615, -48962.6095768071, 0, ]
  - [8100, -48964.4076495523, 1054.63673856951, -47909.7709109828, 699.564852636785, 52.7662, 52.7662, 52.7662, 146915.445947882, 183.403004092219, -19.3439607418939, 384.456509237128, 185.096463781423, -48964.4076495523, 0, ]
  - [8200, -48964.513962303, 1056.02127886799, -47908.492683435, 700.483250123287, 52.7662, 52.7662, 52.7662, 146915.445947882, -147.213529241099, -328.685582629774, 124.35295421511, -237.307959308629, -48964.513962303, 0, ]
  - [8300, -48963.2143488244, 1055.34677509244, -47907.867573732, 700.035836225126, 52.7662, 52.7662, 52.7662, 146915.445947882, 135.870065479578, 142.10532434381, 251.512794066558, 13.9920780283717, -48963.2143488244, 0, ]
  - [8400, -48960.6349599974, 1056.51743779176, -47904.1175222057, 700.81236377133, 52.7662, 52.7662, 52.7662, 146915.445947882, 377.656802161534, 418.6222587053, 223.263420544367, 491.084727234937, -48960.6349599974, 0, ]
  - [8500, -48950.6765159307, 1065.58271758545, -47885.0937983453, 706.825572766485, 52.7662, 52.7662, 52.7662, 146915.445947882, 873.640834571896, 923.660048289883, 859.307801699159, 837.954653726645, -48950.6765159307, 0, ]
  - [8600, -48960.1388285726, 1051.27484660633, -47908.8639819663, 697.334832223317, 52.7662, 52.7662, 52.7662, 146915.445947882, 299.573606986387, 816.376715591455, 235.22108051626, -152.876975148554, -48960.1388285726, 0, ]
  - [8700, -48957.7074026228, 1059.92872958634, -47897.7786730365, 703.075152231375, 52.7662, 52.7662, 52.7662, 146915.445947882, 211.364966800079, -227.809462402849, 512.332072395662, 349.572290407424, -48957.7074026228, 0, ]
  - [8800, -48951.0862178638, 1066.56674428878, -47884.519473575, 707.478300355549, 52.7662, 52.7662, 52.7662, 146915.445947882, 1654.35790493152, 1390.98145925013, 1850.98450957128, 1721.10774597314, -48951.0862178638, 0, ]
  - [8900, -48949.7469370871, 1066.68412392826, -47883.0628131588, 707.556160975415, 52.7662, 52.7662, 52.7662, 146915.445947882, 1562.32660054354, 1351.46633482812, 1884.79062244573, 1450.72284435678, -48949.7469370871, 0, ]
  - [9000, -48959.7381212895, 1066.58569096876, -47893.1524303207, 707.490868125003, 52.7662, 52.7662, 52.7662, 146915.445947882, 447.493122850502, 609.466218961068, 751.137791283646, -18.1246416932095, -48959.7381212895, 0, ]
  - [9100, -48967.8896126945, 1056.88424833077, -47911.0053643637, 701.055677654952, 52.7662, 52.7662, 52.7662, 146915.445947882, -534.012737972196, -495.742608257383, -273.828328440319, -832.467277218887, -48967.8896126945, 0, ]
  - [9200, -48961.8248541372, 1058.72347085543, -47903.1013832817, 702.27567634016, 52.7662, 52.7662, 52.7662, 146915.445947882, 44.3652524179445, 323.647663014512, -456.5991028511, 266.047197090425, -48961.8248541372, 0, ]
  - [9300, -48957.2876580011, 1061.35633652861, -47895.9313214725, 704.022116815173, 52.7662, 52.7662, 52.7662, 146915.445947882, 583.641228089392, 658.395501869797, 496.135382407237, 596.392799991143, -48957.2876580011, 0, ]
  - [9400, -48955.1633869834, 1046.54060540015, -47908.6227815833, 694.194500931387, 52.7662, 52.7662, 52.7662, 146915.445947882, 347.360904373604, 310.694358615371, 454.639299768589, 276.74905473685, -48955.1633869834, 0, ]
  - [9500, -48972.2362100373, 1053.3378221421, -47918.8983878952, 698.703251437154, 52.7662, 52.7662, 52.7662, 146915.445947882, -994.015152765176, -1154.05944267666, -1395.04072243797, -432.945293180894, -48972.2362100373, 0, ]
  - [9600, -48966.0525248116, 1064.04264749426, -47902.0098773173, 705.804008784315, 52.7662, 52.7662, 52.7662, 146915.445947882, -292.335525196636, -417.878634745801, -236.2049751989, -222.922965645206, -48966.0525248116, 0, ]
  - [9700, -48962.1286048793, 1049.37929230899, -47912.7493125703, 696.077467375131, 52.7662, 52.7662, 52.7662, 146915.445947882, -85.3800519467281, -441.308620501359, -156.349608873543, 341.51807353472, -48962.1286048793, 0, ]
  - [9800, -48959.2199486497, 1053.07486581683, -47906.1450828329, 698.528826446812, 52.7662, 52.7662, 52.7662, 146915.445947882, 905.623256439509, 525.845799355786, 1565.25835467447, 625.765615288264, -48959.2199486497, 0, ]
  - [9900, -48956.4460601987, 1071.45521629305, -47884.9908439056, 710.720936490079, 52.7662, 52.7662, 52.7662, 146915.445947882, 636.125866633134, 197.892584570676, 1190.0944495243, 520.390565804424, -48956.4460601987, 0, ]
  - [10000, -48955.5403343436, 1066.06468816877, -47889.4756461749, 707.14527496134, 52.7662, 52.7662, 52.7662, 146915.445947882, 565.912082170538, 212.620010217931, 367.66429897756, 1117.45193731612, -48955.5403343436, 0, ]
  - [10100, -48956.7677137299, 1057.32048099077, -47899.4472327391, 701.345040831246, 52.7662, 52.7662, 52.7662, 146915.445947882, 581.365675244043, 391.00070229794, 714.879955762239, 638.216367671953, -48956.7677137299, 0, ]
  - [10200, -48959.7001236161, 1051.39750365947, -47908.3026199566, 697.416193473276, 52.7662, 52.7662, 52.7662, 146915.445947882, 139.467637136434, 317.621067098723, -392.679968908469, 493.461813219045, -48959.7001236161, 0, ]
  - [10300, -48965.9398345864, 1059.59237662213, -47906.3474579642, 702.852041559016, 52.7662, 52.7662, 52.7662, 146915.445947882, -63.3049705801651, -251.788226775403, 296.242183169456, -234.368868134552, -48965.9398345864, 0, ]
  - [10400, -48964.5485020101, 1065.65269309594, -47898.8958089142, 706.871989135164, 52.7662, 52.7662, 52.7662, 146915.445947882, -371.941465883544, -744.507920748594, -278.32678915133, -92.9896877507096, -48964.5485020101, 0, ]
  - [10500, -48954.1833680049, 1065.12021787486, -47889.0631501301, 706.518786050212, 52.7662, 52.7662, 52.7662, 146915.445947882, 1087.27007747095, 1152.43503592305, 1002.54193832335, 1106.83325816645, -48954.1833680049, 0, ]
  - [10600, -48958.4539644328, 1046.77469010788, -47911.6792743249, 694.349774712474, 52.7662, 52.7662, 52.7662, 146915.445947882, 319.399235583287, 398.99751542782, 237.81145484794, 321.388736474108, -48958.4539644328, 0, ]
  - [10700, -48972.424743634, 1057.88018873077, -47914.5445549033, 701.716307873566, 52.7662, 52.7662, 52.7662, 146915.445947882, -1010.63349072304, -1034.77082969813, -1261.12884679091, -736.000795680065, -48972.424743634, 0, ]
  - [10800, -48962.8925903602, 1053.29755899035, -47909.5950313698, 698.676543960735, 52.7662, 52.7662, 52.7662, 146915.445947882, 459.100892693363, 669.071891584475, 252.982935011695, 455.247851483918, -48962.8925903602, 0, ]
  - [10900, -48965.0079514897, 1044.30692020772, -47920.701031282, 692.712846068313, 52.7662, 52.7662, 52.7662, 146915.445947882, -562.344085847654, -730.214663664067, -373.561001670261, -583.25659220863, -48965.0079514897, 0, ]
  - [11000, -48961.2819951572, 1045.89550158912, -47915.386493568, 693.766588707214, 52.7662, 52.7662, 52.7662, 146915.445947882, 135.280128445209, -214.195505933276, 363.316767777124, 256.719123491787, -48961.2819951572, 0, ]
  - [11100, -48976.3783362981, 1053.39802040895, -47922.9803158891, 698.743182334814, 52.7662, 52.7662, 52.7662, 146915.445947882, -1750.2309776797, -2584.90626363468, -1031.6307431409, -1634.15592626352, -48976.3783362981, 0, ]
  - [11200, -48959.2570885126, 1044.77515688663, -47914.4819316259, 693.023438247877, 52.7662, 52.7662, 52.7662, 146915.445947882, 511.977289041788, 437.041822618879, 714.610980026441, 384.279064480042, -48959.2570885126, 0, ]
  - [11300, -48961.4590242459, 1044.98573463172, -47916.4732896142, 693.163119318929, 52.7662, 52.7662, 52.7662, 146915.445947882, -304.029234965453, -292.037713981291, -338.95892583348, -281.091065081584, -48961.4590242459, 0, ]
  - [11400, -48956.3854182259, 1062.29519208337, -47894.0902261425, 704.644881340429, 52.7662, 52.7662, 52.7662, 146915.445947882, 1097.1899573679, 1211.41855051091, 1201.41257894586, 878.738742646928, -48956.3854182259, 0, ]
  - [11500, -48967.6290625153, 1061.98067615239, -47905.6483863629, 704.436255675434, 52.7662, 52.7662, 52.7662, 146915.445947882, -371.996599884032, -167.603849962558, -524.818835916976, -423.567113772565, -48967.6290625153, 0, ]
  - [11600, -48956.4022504934, 1046.60965431596, -47909.7925961775, 694.240302668465, 52.7662, 52.7662, 52.7662, 146915.445947882, 840.682446154813, 655.479556463881, 1391.06705938733, 475.500722613226, -48956.4022504934, 0, ]
  - [11700, -48962.7458226695, 1063.77492630347, -47898.9708963661, 705.626423148868, 52.7662, 52.7662, 52.7662, 146915.445947882, -404.39399656087, -330.501743531964, 26.7819217113836, -909.462167862029, -48962.7458226695, 0, ]
  - [11800, -48962.6213383364, 1052.92459404251, -47909.6967442939, 698.429147715912, 52.7662, 52.7662, 52.7662, 146915.445947882, 506.228535696945, 528.96927581029, 1062.05933435522, -72.3430030746759, -48962.6213383364, 0, ]
  - [11900, -48963.6714077125, 1052.43338722213, -47911.2380204904, 698.103318912169, 52.7662, 52.7662, 52.7662, 146915.445947882, 448.206822577329, 107.573148688391, 370.896591568608, 866.15072747499, -48963.6714077125, 0, ]
  - [12000, -48961.3444185737, 1064.13613205575, -47897.2082865179, 705.866019248289, 52.7662, 52.7662, 52.7662, 146915.445947882, 254.643174807239, -178.137808988874, 396.5131922014, 545.554141209192, -48961.3444185737, 0, ]
  - [12100, -48964.3746449351, 1054.8253125283, -47909.5493324068, 699.689938089306, 52.7662, 52.7662, 52.7662, 146915.445947882, -254.65986100053, -411.060235948172, -298.289469698474, -54.6298773549461, -48964.3746449351, 0, ]
  - [12200, -48957.6699075033, 1048.05545684266, -47909.6144506607, 695.199336802727, 52.7662, 52.7662, 52.7662, 146915.445947882, 543.093538647694, 623.827225818944, 579.096604036102, 426.356786088033, -48957.6699075033, 0, ]
  - [12300, -48956.1809456517, 1046.08963809926, -47910.0913075525, 693.895363928236, 52.7662, 52.7662, 52.7662, 146915.445947882, 734.25393337321, 496.617422254445, 902.31827241444, 803.826105450745, -48956.1809456517, 0, ]
  - [12400, -48961.6277822979, 1051.11195841816, -47910.5158238798, 697.226784734371, 52.7662, 52.7662, 52.7662, 146915.445947882, 88.3220094173096, 80.1398722212244, -219.082232332689, 403.908388363396, -48961.6277822979, 0, ]
  - [12500, -48971.4079175968, 1033.46984178071, -47937.9380758161, 685.524362208847, 52.7662, 52.7662, 52.7662, 146915.445947882, -757.799475561539, -741.611929447474, -614.694285803437, -917.092211433706, -48971.4079175968, 0, ]
  - [12600, -48976.5318280501, 1052.3687606851, -47924.163067365, 698.060450640846, 52.7662, 52.7662, 52.7662, 146915.445947882, -1158.24380681911, -1621.43162824002, -940.488384480893, -912.811407736405, -48976.5318280501, 0, ]
  - [12700, -48964.2815742005, 1049.83119218978, -47914.4503820107, 696.377222980023, 52.7662, 52.7662, 52.7662, 146915.445947882, -115.394467769451, -22.8012439704571, 335.4204834279, -658.802642765795, -48964.2815742005, 0, ]
  - [12800, -48946.2238854551, 1038.90055185275, -47907.3233336023, 689.126677349522, 52.7662, 52.7662, 52.7662, 146915.445947882, 1834.62546510018, 1653.90588223051, 1887.38004244163, 1962.5904706284, -48946.2238854551, 0, ]
  - [12900, -48957.016983005, 1047.52658165772, -47909.4904013473, 694.848521704706, 52.7662, 52.7662, 52.7662, 146915.445947882, 570.427375036921, 497.732914584336, 783.22516694468, 430.324043581748, -48957.016983005, 0, ]
  - [13000, -48972.5246561696, 1049.62303637493, -47922.9016197947, 696.239148431116, 52.7662, 52.7662, 52.7662, 146915.445947882, -1142.34579175306, -952.899161118745, -1232.29068590279, -1241.84752823765, -48972.5246561696, 0, ]
  - [13100, -48954.3560319535, 1045.69952619056, -47908.6565057629, 693.636593709125, 52.7662, 52.7662, 52.7662, 146915.445947882, 1153.35285576295, 712.924845485915, 1621.56528580255, 1125.56843600038, -48954.3560319535, 0, ]
  - [13200, -48976.8430833578, 1054.5764031385, -47922.2666802193, 699.524830754974, 52.7662, 52.7662, 52.7662, 146915.445947882, -1122.11996352509, -1537.49929111294, -765.130058456152, -1063.73054100619, -48976.8430833578, 0, ]
  - [13300, -48963.9573038676, 1055.20471922798, -47908.7525846396, 699.941607296579, 52.7662, 52.7662, 52.7662, 146915.445947882, 164.545312585718, -24.744913467648, 554.164300825586, -35.7834496007783, -48963.9573038676, 0, ]
  - [13400, -48968.3504419738, 1062.28700418217, -47906.0634377916, 704.639450116873, 52.7662, 52.7662, 52.7662, 146915.445947882, -458.902781018495, -502.230411007288, -316.748647824141, -557.729284224056, -48968.3504419738, 0, ]
  - [13500, -48956.4493306397, 1054.21344003875, -47902.235890601, 699.284068966482, 52.7662, 52.7662, 52.7662, 146915.445947882, 631.884882193679, 322.64805139471, 545.28655810033, 1027.720037086, -48956.4493306397, 0, ]
  - [13600, -48969.8001690925, 1061.01258280759, -47908.7875862849, 703.79409705027, 52.7662, 52.7662, 52.7662, 146915.445947882, -579.897517731757, -169.222430164962, -747.049714771493, -823.420408258817, -48969.8001690925, 0, ]
  - [13700, -48958.7853597442, 1052.04426826806, -47906.7410914762, 697.845207342745, 52.7662, 52.7662, 52.7662, 146915.445947882, 464.560288936521, 1064.82384209733, 197.061469283869, 131.795555428366, -48958.7853597442, 0, ]
  - [13800, -48974.5019596563, 1042.31782290758, -47932.1841367487, 691.393431990683, 52.7662, 52.7662, 52.7662, 146915.445947882, -1386.88625506996, -1624.93904081102, -1202.74752334866, -1332.9722010502, -48974.5019596563, 0, ]
  - [13900, -48974.8167760477, 1051.36522676728, -47923.4515492804, 697.394783466873, 52.7662, 52.7662, 52.7662, 146915.445947882, -1479.98592572924, -1427.03808504694, -835.128590626128, -2177.79110151464, -48974.8167760477, 0, ]
  - [14000, -48961.7783313887, 1053.46416210707, -47908.3141692816, 698.787055647403, 52.7662, 52.7662, 52.7662, 146915.445947882, 93.0677847989608, 316.008196822217, 180.433873809699, -217.238716235033, -48961.7783313887, 0, ]
  - [14100, -48956.6127975833, 1038.0929637277, -47918.5198338556, 688.590985535432, 52.7662, 52.7662, 52.7662, 146915.445947882, 648.323717137815, 134.609651072211, 1143.34088209889, 667.020618242342, -48956.6127975833, 0, ]
  - [14200, -48974.899690153, 1051.73381631728, -47923.1658738357, 697.639277409477, 52.7662, 52.7662, 52.7662, 146915.445947882, -1162.94710453422, -847.362781400439, -1692.70691249029, -948.771619711928, -48974.899690153, 0, ]
  - [14300, -48974.6047291807, 1057.88792975686, -47916.7167994238, 701.721442674563, 52.7662, 52.7662, 52.7662, 146915.445947882, -1036.91099934076, -937.396039868347, -1360.37312310244, -812.963835051488, -48974.6047291807, 0, ]
  - [14400, -48963.6962266374, 1067.24620561522, -47896.4500210221, 707.929002711458, 52.7662, 52.7662, 52.7662, 146915.445947882, 126.228561209498, 136.516257095861, 154.761692539107, 87.4077339935276, -48963.6962266374, 0, ]
  - [14500, -48965.1076480433, 1070.71585862581, -47894.3917894175, 710.23050351101, 52.7662, 52.7662, 52.7662, 146915.445947882, -115.72955639681, -280.789831979348, 350.771650054788, -417.170487265872, -48965.1076480433, 0, ]
  - [14600, -48971.4366520652, 1060.96796942385, -47910.4686826413, 703.76450396472, 52.7662, 52.7662, 52.7662, 146915.445947882, -691.719604597768, -1074.57244392725, -258.914398609802, -741.671971256248, -48971.4366520652, 0, ]
  - [14700, -48968.5017420823, 1071.16430812982, -47897.3374339525, 710.52797040147, 52.7662, 52.7662, 52.7662, 146915.445947882, -34.2505600015723, -436.595753287632, -113.067406147215, 446.911479430129, -48968.5017420823, 0, ]
  - [14800, -48963.5230431661, 1066.41136391348, -47897.1116792526, 707.375232971896, 52.7662, 52.7662, 52.7662, 146915.445947882, 91.9314582246746, -197.871698533009, 34.780312047487, 438.885761159542, -48963.5230431661, 0, ]
  - [14900, -48963.5262584147, 1055.84737092476, -47907.67888749, 700.367892976859, 52.7662, 52.7662, 52.7662, 146915.445947882, -3.40189848326707, 44.6930298904417, 239.378697522281, -294.277422862525, -48963.5262584147, 0, ]
  - [15000, -48969.4222920375, 1049.78225624221, -47919.6400357953, 696.344762638278, 52.7662, 52.7662, 52.7662, 146915.445947882, -360.143002435222, -199.711541130193, -314.28635771053, -566.431108464943, -48969.4222920375, 0, ]
  - [15100, -48976.1347371762, 1047.41644615521, -47928.7182910209, 694.775466287839, 52.7662, 52.7662, 52.7662, 146915.445947882, -1065.83622772002, -1011.83779971458, -941.059930276959, -1244.61095316851, -48976.1347371762, 0, ]
  - [15200, -48967.2110785277, 1039.12828003388, -47928.0827984939, 689.277734700028, 52.7662, 52.7662, 52.7662, 146915.445947882, -189.982254495629, -31.4059875329016, 27.3402608786427, -565.88103683263, -48967.2110785277, 0, ]
  - [15300, -48970.4701614388, 1047.27566853802, -47923.1944929008, 694.682085250154, 52.7662, 52.7662, 52.7662, 146915.445947882, -742.350644785879, -223.924968450024, -702.214631217925, -1300.91233468969, -48970.4701614388, 0, ]
  - [15400, -48971.5650703986, 1058.63811681277, -47912.9269535858, 702.219059036691, 52.7662, 52.7662, 52.7662, 146915.445947882, -304.50121622047, -476.172338652802, 77.8869947425006, -515.218304751104, -48971.5650703986, 0, ]
  - [15500, -48957.5118628713, 1059.2419661216, -47898.2698967497, 702.619606198859, 52.7662, 52.7662, 52.7662, 146915.445947882, 1173.74216666488, 997.217716657878, 1229.50999693106, 1294.49878640571, -48957.5118628713, 0, ]
  - [15600, -48955.0222438795, 1048.12686334487, -47906.8953805347, 695.246702381196, 52.7662, 52.7662, 52.7662, 146915.445947882, 1207.65389543815, 1186.34982478576, 1581.27085887271, 855.341002655995, -48955.0222438795, 0, ]
  - [15700, -48958.061321919, 1051.86172579599, -47906.199596123, 697.724122714361, 52.7662, 52.7662, 52.7662, 146915.445947882, 611.167687654927, 774.064628490307, 149.197772389878, 910.240662084599, -48958.061321919, 0, ]
  - [15800, -48971.9384636743, 1062.90280613024, -47909.035657544, 705.047925740088, 52.7662, 52.7662, 52.7662, 146915.445947882, -1076.88583941668, -876.216603483999, -986.601275612355, -1367.83963915367, -48971.9384636743, 0, ]
  - [15900, -48964.1751701201, 1051.31899320731, -47912.8561769128, 697.364115681097, 52.7662, 52.7662, 52.7662, 146915.445947882, -95.2141948175595, 337.2883525942, -54.4154481927161, -568.51548885416, -48964.1751701201, 0, ]
  - [16000, -48973.2481663028, 1053.97937340279, -47919.2687929001, 699.12880717282, 52.7662, 52.7662, 52.7662, 146915.445947882, -893.938281279056, -1416.17069574587, -451.706097509422, -813.938050581876, -48973.2481663028, 0, ]
  - [16100, -48958.9626204696, 1061.09135485686, -47897.8712656127, 703.846348365839, 52.7662, 52.7662, 52.7662, 146915.445947882, 285.755137005019, 89.5657402312882, 585.788203300924, 181.911467482848, -48958.9626204696, 0, ]
  - [16200, -48963.1946387354, 1061.21055404955, -47901.9840846858, 703.925415937275, 52.7662, 52.7662, 52.7662, 146915.445947882, -417.78842591096, -361.488010226761, -148.656603604236, -743.220663901883, -48963.1946387354, 0, ]
  - [16300, -48960.1077242549, 1054.64189591382, -47905.4658283411, 699.568273622115, 52.7662, 52.7662, 52.7662, 146915.445947882, 295.135840419051, 148.760101478224, 608.08211772327, 128.56530205566, -48960.1077242549, 0, ]
  - [16400, -48957.6929651029, 1052.77542394136, -47904.9175411615, 698.330199750218, 52.7662, 52.7662, 52.7662, 146915.445947882, 295.397742363976, 316.52280563374, 468.663854762366, 101.006566695819, -48957.6929651029, 0, ]
  - [16500, -48965.8612076484, 1051.26771231739, -47914.593495331, 697.330099885053, 52.7662, 52.7662, 52.7662, 146915.445947882, -76.8194960346184, -142.459239176751, 126.202119441508, -214.201368368617, -48965.8612076484, 0, ]
  - [16600, -48952.4489534713, 1054.56094819149, -47897.8880052798, 699.514579132464, 52.7662, 52.7662, 52.7662, 146915.445947882, 993.113221744395, 1295.20238310161, 696.658885347827, 987.47839678375, -48952.4489534713, 0, ]
  - [16700, -48960.9924792864, 1049.71688590049, -47911.2755933859, 696.301400984163, 52.7662, 52.7662, 52.7662, 146915.445947882, 673.975612986325, 509.462579647033, 630.782914475771, 881.681344836164, -48960.9924792864, 0, ]
  - [16800, -48962.5896282855, 1049.17514573244, -47913.4144825531, 695.942052246378, 52.7662, 52.7662, 52.7662, 146915.445947882, 142.563535257376, -272.751149146561, 323.831462295407, 376.610292623283, -48962.5896282855, 0, ]
  - [16900, -48971.4037512952, 1057.35482710098, -47914.0489241943, 701.367823397644, 52.7662, 52.7662, 52.7662, 146915.445947882, -336.952258516118, -619.391591434408, -303.093352280364, -88.3718318335843, -48971.4037512952, 0, ]
  - [17000, -48960.0516823146, 1060.37926526289, -47899.6724170517, 703.374002928157, 52.7662, 52.7662, 52.7662, 146915.445947882, 585.741150155878, 200.60676655582, 1098.38783322454, 458.228850687286, -48960.0516823146, 0, ]
  - [17100, -48955.2620605801, 1063.00687119594, -47892.2551893842, 705.11695449633, 52.7662, 52.7662, 52.7662, 146915.445947882, 522.066131452802, 631.16897960955, 828.87799331622, 106.151421432639, -48955.2620605801, 0, ]
  - [17200, -48961.6839539849, 1052.3677104296, -47909.3162435553, 698.059753982176, 52.7662, 52.7662, 52.7662, 146915.445947882, 191.061543650311, 38.88951809966, 626.191086000582, -91.8959731493101, -48961.6839539849, 0, ]
  - [17300, -48966.9926661804, 1060.70448913993, -47906.2881770405, 703.589731420535, 52.7662, 52.7662, 52.7662, 146915.445947882, -281.096253370411, -484.499126674102, 37.6340586559829, -396.423692093115, -48966.9926661804, 0, ]
  - [17400, -48967.0483643793, 1055.64335767839, -47911.405006701, 700.232566289091, 52.7662, 52.7662, 52.7662, 146915.445947882, -346.422095299585, -788.562383928535, 141.332556547196, -392.036458517419, -48967.0483643793, 0, ]
  - [17500, -48982.8095534653, 1054.31147458367, -47928.4980788816, 699.349097539318, 52.7662, 52.7662, 52.7662, 146915.445947882, -2277.97054925513, -2094.18717401212, -2571.58605761316, -2168.13841614012, -48982.8095534653, 0, ]
  - [17600, -48976.0151359823, 1053.54801998825, -47922.4671159941, 698.842680512479, 52.7662, 52.7662, 52.7662, 146915.445947882, -1396.29838349582, -1385.75389307894, -1157.19374513808, -1645.94751227044, -48976.0151359823, 0, ]
  - [17700, -48957.3909245018, 1056.18167711679, -47901.209247385, 700.589645978071, 52.7662, 52.7662, 52.7662, 146915.445947882, 840.653343104407, 973.989386826171, 487.625936519735, 1060.34470596731, -48957.3909245018, 0, ]
  - [17800, -48961.94459012, 1046.64427511447, -47915.3003150055, 694.263267441949, 52.7662, 52.7662, 52.7662, 146915.445947882, 574.722743868239, 608.040488208385, 696.678698398074, 419.449044998255, -48961.94459012, 0, ]
  - [17900, -48970.1409217656, 1056.48168187914, -47913.6592398864, 700.788646050504, 52.7662, 52.7662, 52.7662, 146915.445947882, -1355.70296076917, -1485.67929858782, -1106.00924838083, -1475.42033533886, -48970.1409217656, 0, ]
  - [18000, -48973.7700606044, 1063.98373169272, -47909.7863289117, 705.764928575446, 52.7662, 52.7662, 52.7662, 146915.445947882, -1258.55643638747, -1397.55682829399, -1220.59251164083, -1157.51996922758, -48973.7700606044, 0, ]
  - [18100, -48960.787856904, 1054.36014068904, -47906.427716215, 699.381378888511, 52.7662, 52.7662, 52.7662, 146915.445947882, 367.668421797751, 123.68897002874, 373.935690226374, 605.380605138136, -48960.787856904, 0, ]
  - [18200, -48963.4452729206, 1055.46440312574, -47907.9808697948, 700.113861610338, 52.7662, 52.7662, 52.7662, 146915.445947882, 371.770124132683, 500.02963349618, 787.176454826536, -171.895715924669, -48963.4452729206, 0, ]
  - [18300, -48979.4756662546, 1056.37249589881, -47923.1031703558, 700.716220473575, 52.7662, 52.7662, 52.7662, 146915.445947882, -1365.69209811734, -1120.95109285229, -669.522410912494, -2306.60279058725, -48979.4756662546, 0, ]
  - [18400, -48968.2677634848, 1046.42376910872, -47921.8439943761, 694.117000726809, 52.7662, 52.7662, 52.7662, 146915.445947882, -95.9603463686498, -160.494312416299, -220.290803553644, 92.904076864, -48968.2677634848, 0, ]
  - [18500, -48967.9580216045, 1056.95166210549, -47911.006359499, 701.100394765262, 52.7662, 52.7662, 52.7662, 146915.445947882, -331.132153709152, -143.377218919798, -495.655258970666, -354.363983236993, -48967.9580216045, 0, ]
  - [18600, -48967.5421096661, 1040.39647314938, -47927.1456365167, 690.118956418855, 52.7662, 52.7662, 52.7662, 146915.445947882, -212.750779200111, -27.5440593255352, -537.313211668747, -73.3950666060485, -48967.5421096661, 0, ]
  - [18700, -48961.5555531194, 1057.19664677817, -47904.3589063413, 701.262898744283, 52.7662, 52.7662, 52.7662, 146915.445947882, 381.738259791332, 111.883212890724, 501.644822397422, 531.686744085853, -48961.5555531194, 0, ]
  - [18800, -48962.170010248, 1053.87118774686, -47908.2988225011, 699.057045134122, 52.7662, 52.7662, 52.7662, 146915.445947882, 230.097343725965, 415.09179603553, 50.0336754885995, 225.166559653763, -48962.170010248, 0, ]
  - [18900, -48962.0442592612, 1065.24422410006, -47896.8000351611, 706.601042237092, 52.7662, 52.7662, 52.7662, 146915.445947882, 226.778485058927, 250.131075544416, -460.13468230035, 890.339061932718, -48962.0442592612, 0, ]
  - [19000, -48956.0543800948, 1064.83525583887, -47891.219124256, 706.329764164834, 52.7662, 52.7662, 52.7662, 146915.445947882, 1505.96535748327, 1626.98786919833, 1527.18976218149, 1363.71844106999, -48956.0543800948, 0, ]
  - [19100, -48965.2062209075, 1060.57370953233, -47904.6325113751, 703.502982293016, 52.7662, 52.7662, 52.7662, 146915.445947882, 32.7934676230987, -56.3131375095579, 97.9792249601833, 56.714315418672, -48965.2062209075, 0, ]
  - [19200, -48967.9930199572, 1064.37528693191, -47903.6177330253, 706.024656188935, 52.7662, 52.7662, 52.7662, 146915.445947882, -391.963956551376, -332.487719388161, -373.837086314294, -469.567063951669, -48967.9930199572, 0, ]
  - [19300, -48956.0656250445, 1058.60961279649, -47897.456012248, 702.200151665825, 52.7662, 52.7662, 52.7662, 146915.445947882, 184.457335881251, 455.924841245509, -91.0911481999764, 188.53831459822, -48956.0656250445, 0, ]
  - [19400, -48954.977821062, 1043.08762063492, -47911.8902004271, 691.904056563104, 52.7662, 52.7662, 52.7662, 146915.445947882, 618.115829992474, 492.210354955097, 19.1224966950238, 1343.0146383273, -48954.977821062, 0, ]
  - [19500, -48968.5503350058, 1063.67866763174, -47904.8716673741, 705.562572553646, 52.7662, 52.7662, 52.7662, 146915.445947882, -808.35745007246, -990.908664383805, -298.385131685275, -1135.7785541483, -48968.5503350058, 0, ]
  - [19600, -48963.3821264109, 1049.04656042933, -47914.3355659815, 695.856758651596, 52.7662, 52.7662, 52.7662, 146915.445947882, -150.735759672651, -121.941412469569, -257.763109745984, -72.5027568023957, -48963.3821264109, 0, ]
  - [19700, -48976.0413578119, 1068.56851880532, -47907.4728390066, 708.806123522957, 52.7662, 52.7662, 52.7662, 146915.445947882, -957.510767699875, -633.982546163932, -1000.36542753136, -1238.18432940433, -48976.0413578119, 0, ]
  - [19800, -48955.9138594767, 1048.73444984681, -47907.1794096299, 695.649728509671, 52.7662, 52.7662, 52.7662, 146915.445947882, 403.81275641776, -2.3657039485804, 602.460580464947, 611.343392736916, -48955.9138594767, 0, ]
  - [19900, -48951.6463056112, 1050.62771083272, -47901.0185947785, 696.905572151535, 52.7662, 52.7662, 52.7662, 146915.445947882, 1193.83400001054, 992.365277865019, 1407.82018209113, 1181.31654007547, -48951.6463056112, 0, ]
  - [20000, -48960.6526039609, 1053.66140377049, -47906.9912001904, 698.917890588152, 52.7662, 52.7662, 52.7662, 146915.445947882, 332.156775309752, -15.4380794313507, 448.110728426885, 563.79767693372, -50063.0039835754, 0, ]
...
Loop time of 18.2495 on 64 procs for 20000 steps with 11664 atoms

Performance: 94.687 ns/day, 0.253 hours/ns, 1095.920 timesteps/s, 12.783 Matom-step/s
75.1% CPU use with 64 MPI tasks x 1 OpenMP threads

MPI task timing breakdown:
Section |  min time  |  avg time  |  max time  |%varavg| %total
---------------------------------------------------------------
Pair    | 10.998     | 11.402     | 11.921     |   5.5 | 62.48
Neigh   | 0          | 0          | 0          |   0.0 |  0.00
Comm    | 3.9149     | 4.3681     | 4.7989     |   9.7 | 23.94
Output  | 0.02748    | 0.02892    | 0.10784    |   5.8 |  0.16
Modify  | 1.7888     | 1.9807     | 2.1436     |   5.4 | 10.85
Other   |            | 0.47       |            |       |  2.58

Nlocal:         182.25 ave         189 max         180 min
Histogram: 48 0 0 0 0 0 0 0 0 16
Nghost:        1275.75 ave        1278 max        1269 min
Histogram: 16 0 0 0 0 0 0 0 0 48
Neighs:           8019 ave        8562 max        7734 min
Histogram: 16 32 0 0 0 0 0 0 0 16

Total # of neighbors = 513216
Ave neighs/atom = 44
Neighbor list builds = 0
Dangerous builds = 0
fix fpf all print 1 "${dE} ${lambda}" title "# dE [eV] lambda" screen no file data/forward_${T}K.dat
fix fpf all print 1 "${dE} ${lambda}" title "# dE [eV] lambda" screen no file data/forward_700K.dat
run ${t}
run 100000
Per MPI rank memory allocation (min/avg/max) = 3.736 | 3.736 | 3.736 Mbytes
---
keywords: ['Step', 'PotEng', 'KinEng', 'TotEng', 'Temp', 'Lx', 'Ly', 'Lz', 'Volume', 'Press', 'Pxx', 'Pyy', 'Pzz', 'v_dE', 'v_lambda', ]
data:
  - [20000, -48960.6526039609, 1053.66140377049, -47906.9912001905, 698.917890588152, 52.7662, 52.7662, 52.7662, 146915.445947882, 332.156775309754, -15.4380794313607, 448.11072842689, 563.797676933736, -50063.0039835754, 0, ]
  - [20100, -48954.5418799268, 1060.80073055742, -47893.7411493694, 703.653570570627, 52.7662, 52.7662, 52.7662, 146915.445947882, 1157.62270602661, 1333.84497618195, 953.275094175698, 1185.74804772219, -50069.364125175, 1.2558053968507e-13, ]
  - [20200, -48960.2692655203, 1055.81091111436, -47904.4583544059, 700.343708344409, 52.7662, 52.7662, 52.7662, 146915.445947882, 549.340400208963, 353.157913580467, 1032.70596386075, 262.157323185664, -50078.1048612878, 4.00518903939584e-12, ]
  - [20300, -48961.8814656985, 1050.24370511365, -47911.6377605849, 696.650852308722, 52.7662, 52.7662, 52.7662, 146915.445947882, -255.590926033058, -287.432873829326, -313.384130120549, -165.955774149297, -50096.7272565577, 3.03129989146628e-11, ]
  - [20400, -48959.859766103, 1059.97145692513, -47899.8883091779, 703.103494259842, 52.7662, 52.7662, 52.7662, 146915.445947882, 729.399416830212, 790.242221296824, 1308.26426478116, 89.6917644126617, -50096.799815715, 1.2731250673451e-10, ]
  - [20500, -48962.0896902315, 1049.51890361951, -47912.570786612, 696.170074774719, 52.7662, 52.7662, 52.7662, 146915.445947882, 204.113623932085, 20.3017971174928, 285.639504148367, 306.399570530393, -50084.9682531185, 3.87229564589844e-10, ]
  - [20600, -48964.4850640322, 1045.26096159775, -47919.2241024344, 693.345683708062, 52.7662, 52.7662, 52.7662, 146915.445947882, 291.806070980838, -205.065604597358, 814.884379151471, 265.599438388403, -50065.0784071893, 9.60331117066399e-10, ]
  - [20700, -48968.2967325237, 1041.92975174284, -47926.3669807809, 691.136015444069, 52.7662, 52.7662, 52.7662, 146915.445947882, -287.638818009181, -79.0769726673146, -654.75802221582, -129.08145914441, -50062.0747926198, 2.06871232013244e-09, ]
  - [20800, -48951.8426153223, 1050.69377095272, -47901.1488443695, 696.94939135148, 52.7662, 52.7662, 52.7662, 146915.445947882, 1550.13040513506, 1661.7702267567, 1548.84634723278, 1439.77464141569, -50085.2826204204, 4.0197947066522e-09, ]
  - [20900, -48961.9563276692, 1058.48854747104, -47903.4677801982, 702.119846245521, 52.7662, 52.7662, 52.7662, 146915.445947882, 364.415773334711, -17.7503595383391, 452.177711490094, 658.819968052375, -50093.1125623735, 7.21953805066232e-09, ]
  - [21000, -48962.5361507432, 1058.47456089263, -47904.0615898506, 702.110568625744, 52.7662, 52.7662, 52.7662, 146915.445947882, 231.964078532147, 173.116184214292, 251.522302673919, 271.253748708235, -50094.5096135302, 1.218536857e-08, ]
  - [21100, -48972.1698321822, 1040.86673138485, -47931.3031007974, 690.430889543474, 52.7662, 52.7662, 52.7662, 146915.445947882, -948.69687776927, -1342.04849648626, -594.807779642125, -909.23435717942, -50070.7470542926, 1.95588260943488e-08, ]
  - [21200, -48971.4290613327, 1060.05608250225, -47911.3729788305, 703.159628355329, 52.7662, 52.7662, 52.7662, 146915.445947882, -846.681807326454, -1033.10248984102, -729.762925251094, -777.180006887251, -50058.0079339707, 3.01179328132704e-08, ]
  - [21300, -48961.3959488397, 1058.26130088392, -47903.1346479558, 701.969108347423, 52.7662, 52.7662, 52.7662, 146915.445947882, 617.812328432838, 248.866986268647, 1007.02634730498, 597.54365172489, -50068.2466604849, 4.47892862063179e-08, ]
  - [21400, -48963.9813431617, 1051.09698566943, -47912.8843574923, 697.216852965092, 52.7662, 52.7662, 52.7662, 146915.445947882, -310.85335039399, -207.086849003076, -365.09794713653, -360.375255042363, -50053.5755985092, 6.46598787448807e-08, ]
  - [21500, -48955.1963634577, 1057.78496892781, -47897.4113945299, 701.653146383934, 52.7662, 52.7662, 52.7662, 146915.445947882, 1155.47861795178, 624.999509775903, 1511.71256176614, 1329.72378231329, -50059.9621094543, 9.09886469429883e-08, ]
  - [21600, -48966.6394547851, 1060.3284381518, -47906.3110166333, 703.340288134069, 52.7662, 52.7662, 52.7662, 146915.445947882, -240.200619540553, 154.219999507491, -561.250470753557, -313.571387375592, -50079.5365721934, 1.25217752321905e-07, ]
  - [21700, -48963.7982441839, 1058.60820495522, -47905.1900392287, 702.199217812264, 52.7662, 52.7662, 52.7662, 146915.445947882, 288.951130192881, -0.650327114952261, 877.357195284977, -9.85347759137484, -50070.7794817857, 1.68983596840977e-07, ]
  - [21800, -48964.8855113463, 1066.17848121385, -47898.7070301325, 707.220756510484, 52.7662, 52.7662, 52.7662, 146915.445947882, -198.391048539888, -595.841377015521, -154.709080225229, 155.377311621087, -50031.3624510624, 2.24127575334849e-07, ]
  - [21900, -48969.0018880879, 1059.6745959822, -47909.3272921057, 702.90657955528, 52.7662, 52.7662, 52.7662, 146915.445947882, -480.847648877582, -350.335233858325, -779.896102495348, -312.311610279071, -50046.4207830069, 2.92706567484841e-07, ]
  - [22000, -48964.2069689301, 1056.26051397876, -47907.9464549513, 700.641940285396, 52.7662, 52.7662, 52.7662, 146915.445947882, 489.178933445333, 26.1499848764547, 471.232724161417, 970.154091298126, -50056.199323191, 3.7700317184e-07, ]
  - [22100, -48970.0043615486, 1052.84180066021, -47917.1625608884, 698.374228957473, 52.7662, 52.7662, 52.7662, 146915.445947882, -173.869730812447, -127.550233158198, -419.171477619439, 25.112518340299, -50061.6671323006, 4.79535684391045e-07, ]
  - [22200, -48970.4881904815, 1057.17122769941, -47913.316962782, 701.246037683566, 52.7662, 52.7662, 52.7662, 146915.445947882, -636.978604503719, -658.010116675694, -551.907423670459, -701.018273165001, -50072.6017969731, 6.03067824188202e-07, ]
  - [22300, -48963.5678562368, 1064.07430882567, -47899.4935474111, 705.825010475068, 52.7662, 52.7662, 52.7662, 146915.445947882, -476.058092514771, -928.45221304043, 80.6828887760876, -580.404953279972, -50106.5788083091, 7.50618208481703e-07, ]
  - [22400, -48957.032804068, 1059.63651226316, -47897.3962918049, 702.881317746812, 52.7662, 52.7662, 52.7662, 146915.445947882, 661.287468609916, 324.793410877694, 1390.76966959656, 268.299325355493, -50094.4204486764, 9.25469579851522e-07, ]
  - [22500, -48957.7277742984, 1057.91145389686, -47899.8163204016, 701.737046778736, 52.7662, 52.7662, 52.7662, 146915.445947882, 922.0000091675, 1182.04905246488, 798.539117333072, 785.411857704542, -50069.9320079483, 1.13117778778076e-06, ]
  - [22600, -48959.353548553, 1038.89863859248, -47920.4549099605, 689.125408239892, 52.7662, 52.7662, 52.7662, 146915.445947882, 753.093554611168, 868.656388331058, 701.040463952651, 689.5838115498, -50054.480052659, 1.37158052711496e-06, ]
  - [22700, -48968.4811838378, 1053.84216275606, -47914.6390210818, 699.037792188841, 52.7662, 52.7662, 52.7662, 146915.445947882, -611.939841101245, -539.939495080118, -556.49944190323, -739.380586320385, -50064.7501768915, 1.65080583583745e-06, ]
  - [22800, -48978.5891616387, 1050.8288290012, -47927.7603326375, 697.038978467429, 52.7662, 52.7662, 52.7662, 146915.445947882, -2122.55553813657, -2353.94753443039, -2079.11521245922, -1934.6038675201, -50090.3171057543, 1.97328035457892e-06, ]
  - [22900, -48970.4644655937, 1059.09722927485, -47911.3672363189, 702.523598912969, 52.7662, 52.7662, 52.7662, 146915.445947882, -702.30733753926, -1021.18326906842, -463.207088133729, -622.531655415623, -50088.1050413701, 2.343737350267e-06, ]
  - [23000, -48967.6037726556, 1053.10757853403, -47914.4961941216, 698.550525545993, 52.7662, 52.7662, 52.7662, 146915.445947882, -366.376688480628, -206.858706645223, -142.573807590963, -749.697551205699, -50095.0991875576, 2.76722450631e-06, ]
  - [23100, -48968.3589023442, 1055.99211007123, -47912.366792273, 700.463901788208, 52.7662, 52.7662, 52.7662, 146915.445947882, -104.992703058463, 23.9585709036869, 11.6473354155975, -350.584015494675, -50077.8287802816, 3.2491114816967e-06, ]
  - [23200, -48954.8977380206, 1048.24421690187, -47906.6535211188, 695.324545699947, 52.7662, 52.7662, 52.7662, 146915.445947882, 693.710524020077, 788.996569346794, 830.347310059555, 461.787692653885, -50081.1176686865, 3.79509724138202e-06, ]
  - [23300, -48957.2819589083, 1033.82287239718, -47923.4590865111, 685.758535552294, 52.7662, 52.7662, 52.7662, 146915.445947882, 587.834225883922, 452.221321976382, 803.419457457327, 507.861898218051, -50101.147386335, 4.41121716031674e-06, ]
  - [23400, -48958.0146513803, 1055.30629452767, -47902.7083568526, 700.008984533648, 52.7662, 52.7662, 52.7662, 146915.445947882, 403.8569145256, 657.429213058399, 290.096258131632, 264.045272386769, -50110.6236680366, 5.10384990346721e-06, ]
  - [23500, -48947.9121762478, 1065.43452810498, -47882.4776481428, 706.727275269081, 52.7662, 52.7662, 52.7662, 146915.445947882, 1515.0155311771, 1685.08520906621, 1157.3786993346, 1702.58268513051, -50102.868674147, 5.87972408415916e-06, ]
  - [23600, -48961.2363939416, 1069.78060337438, -47891.4557905673, 709.610127149919, 52.7662, 52.7662, 52.7662, 146915.445947882, 395.684975389851, 827.512878552481, 603.492147551906, -243.950099934832, -50100.2407081609, 6.74592470306796e-06, ]
  - [23700, -48950.9810705895, 1056.51649491468, -47894.4645756749, 700.811738339234, 52.7662, 52.7662, 52.7662, 146915.445947882, 1386.44256001285, 1512.12990860384, 1313.09033298194, 1334.10743845278, -50136.9943514182, 7.70989937016563e-06, ]
  - [23800, -48954.0525884877, 1039.34701585197, -47914.7055726358, 689.4228272089, 52.7662, 52.7662, 52.7662, 146915.445947882, 1175.66231762088, 1650.82511442284, 861.091038836405, 1015.07079960339, -50123.678660775, 8.77946431192315e-06, ]
  - [23900, -48971.7268251095, 1052.33448130675, -47919.3923438028, 698.037712339224, 52.7662, 52.7662, 52.7662, 146915.445947882, -972.167136624811, -813.742175805458, -881.030925073602, -1221.72830899537, -50113.1552405091, 9.96281016605489e-06, ]
  - [24000, -48974.2057130112, 1056.18338556195, -47918.0223274492, 700.590779229117, 52.7662, 52.7662, 52.7662, 146915.445947882, -626.429272503747, -1023.31539426366, -473.088516118422, -382.883907129152, -50094.7287136321, 1.126850756608e-05, ]
  - [24100, -48968.349422202, 1056.75543348906, -47911.5939887129, 700.970231801927, 52.7662, 52.7662, 52.7662, 146915.445947882, -55.884863111683, -72.8295986527157, 55.1982889792845, -150.02327966162, -50106.0937684972, 1.2705512517964e-05, ]
  - [24200, -48965.3208884157, 1044.83916071252, -47920.4817277032, 693.065893460551, 52.7662, 52.7662, 52.7662, 146915.445947882, -196.237170973512, -71.9433061129941, -400.72862249668, -116.039584310861, -50082.1770686164, 1.42831715710919e-05, ]
  - [24300, -48972.8174378047, 1047.61878762492, -47925.1986501798, 694.909684047621, 52.7662, 52.7662, 52.7662, 146915.445947882, -1109.28090111377, -1295.08449467305, -1050.15769466627, -982.600514001984, -50086.5144898406, 1.60112267858132e-05, ]
  - [24400, -48973.4118274739, 1046.81891763821, -47926.5929098357, 694.379111852553, 52.7662, 52.7662, 52.7662, 146915.445947882, -1284.37052680264, -1237.53935104568, -1681.67393814858, -933.898291213655, -50060.3701424272, 1.78998204997854e-05, ]
  - [24500, -48963.2287728097, 1054.11113764432, -47909.1176351654, 699.21620943071, 52.7662, 52.7662, 52.7662, 146915.445947882, -126.270061598476, -183.160196993209, -108.040833038506, -87.6091547637096, -50072.7054419646, 1.99594998953344e-05, ]
  - [24600, -48967.007509763, 1057.26065504034, -47909.7468547226, 701.305356899646, 52.7662, 52.7662, 52.7662, 146915.445947882, -363.074046248151, -593.912781313082, 51.4514523509607, -546.760809782329, -50073.4549206898, 2.2201221370035e-05, ]
  - [24700, -48960.4369122428, 1067.01284870399, -47893.4240635388, 707.774211694568, 52.7662, 52.7662, 52.7662, 146915.445947882, 277.262271935385, -267.362372348929, 1363.60290651997, -264.453718364889, -50104.7665548994, 2.46363547127047e-05, ]
  - [24800, -48961.1745553212, 1055.51745731486, -47905.6570980063, 700.149053676604, 52.7662, 52.7662, 52.7662, 146915.445947882, 177.189574226896, 51.7863949956229, 244.388293221034, 235.394034464031, -50102.4673181856, 2.7276687086994e-05, ]
  - [24900, -48963.8754595486, 1043.52939157114, -47920.3460679775, 692.197093405643, 52.7662, 52.7662, 52.7662, 146915.445947882, 168.560901691282, 151.041322420119, 11.5281580079081, 343.113224645824, -50081.1858822878, 3.01344268247409e-05, ]
  - [25000, -48962.0864869132, 1048.1926228551, -47913.8938640581, 695.290322179751, 52.7662, 52.7662, 52.7662, 146915.445947882, 533.755804737214, 436.059539362495, 580.541768173523, 584.666106675628, -50072.5987625808, 3.322220703125e-05, ]
  - [25100, -48963.975464908, 1042.71270934948, -47921.2627555585, 691.655369267693, 52.7662, 52.7662, 52.7662, 146915.445947882, -22.5835185067659, -246.66498679529, 271.995599678217, -93.0811684032229, -50091.5795051199, 3.6553089004642e-05, ]
  - [25200, -48982.5903545949, 1062.46840273889, -47920.1219518561, 704.759775959849, 52.7662, 52.7662, 52.7662, 146915.445947882, -2393.31073815634, -1737.39077046019, -2644.48303306847, -2798.05841094035, -50074.8785821108, 4.01405654714096e-05, ]
  - [25300, -48971.4304870312, 1055.70417619811, -47915.7263108331, 700.272908614775, 52.7662, 52.7662, 52.7662, 146915.445947882, -961.048270802027, -1169.5644339171, -803.008802008015, -910.571576480969, -50063.2366523423, 4.39985636403039e-05, ]
  - [25400, -48971.1450989269, 1058.58508495138, -47912.5600139756, 702.183881780921, 52.7662, 52.7662, 52.7662, 146915.445947882, -1061.61790548498, -1047.52181193793, -1150.92432625742, -986.407578259596, -50072.7308663377, 4.81414480766634e-05, ]
  - [25500, -48968.7666174464, 1065.92594484507, -47902.8406726013, 707.053243317411, 52.7662, 52.7662, 52.7662, 146915.445947882, -482.927296472456, 5.98326757590212, -725.098576388753, -729.666580604515, -50055.235432864, 5.25840233992879e-05, ]
  - [25600, -48960.1306159177, 1042.6958717245, -47917.4347441932, 691.644200483026, 52.7662, 52.7662, 52.7662, 146915.445947882, 547.543932270177, 591.918672249947, 742.026957064541, 308.686167496046, -50063.0415183069, 5.7341536801945e-05, ]
  - [25700, -48964.5752042876, 1060.07307246925, -47904.5021318184, 703.170898191969, 52.7662, 52.7662, 52.7662, 146915.445947882, 153.367958482132, 572.338234953019, 23.2144955247831, -135.448855031409, -50055.5589977471, 6.24296804015908e-05, ]
  - [25800, -48970.1989252978, 1044.66836067127, -47925.5305646265, 692.952597857125, 52.7662, 52.7662, 52.7662, 146915.445947882, -660.871597282295, -595.261768735991, -982.494269419914, -404.858753690981, -50052.914118917, 6.78645934153687e-05, ]
  - [25900, -48955.9535873679, 1045.4329026489, -47910.520684719, 693.459736169645, 52.7662, 52.7662, 52.7662, 146915.445947882, 908.764797895231, 1088.58288409935, 527.964303180894, 1109.74720640545, -50056.8542211982, 7.36628641684442e-05, ]
  - [26000, -48954.4009580647, 1059.46189198741, -47894.9390660773, 702.765488093809, 52.7662, 52.7662, 52.7662, 146915.445947882, 798.232047026001, 999.445803983221, 523.204199126592, 872.046137968191, -50028.4747724021, 7.98415319347201e-05, ]
  - [26100, -48951.0620800416, 1047.96956324921, -47903.0925167924, 695.142361602786, 52.7662, 52.7662, 52.7662, 146915.445947882, 1369.5410855948, 1010.03437077276, 1296.96180850557, 1801.62707750605, -50033.3273195364, 8.64180886124637e-05, ]
  - [26200, -48970.887478774, 1059.47224122168, -47911.4152375524, 702.772352979391, 52.7662, 52.7662, 52.7662, 146915.445947882, -946.697333116067, -711.070778211592, -1147.69121599545, -981.330005141158, -50032.2777099231, 9.34104802368714e-05, ]
  - [26300, -48958.2686327195, 1060.56097398561, -47897.7076587339, 703.494534511391, 52.7662, 52.7662, 52.7662, 146915.445947882, 457.573267176681, 348.374228329467, 679.570322305075, 344.775250895502, -50011.3989285013, 0.000100837108331577, ]
  - [26400, -48970.327979166, 1052.86341465437, -47917.4645645117, 698.388566017895, 52.7662, 52.7662, 52.7662, 146915.445947882, -793.902918561722, -910.787764457892, -196.578505374284, -1274.34248585299, -49995.7454805727, 0.000108716831101108, ]
  - [26500, -48961.8157893729, 1047.37534415383, -47914.440445219, 694.748202383135, 52.7662, 52.7662, 52.7662, 146915.445947882, 618.921168971067, 336.827531366022, 857.00278002878, 662.933195518402, -49973.6169527073, 0.000117068964466276, ]
  - [26600, -48970.8909193266, 1057.55538871211, -47913.3355306145, 701.50086053622, 52.7662, 52.7662, 52.7662, 146915.445947882, -1041.12881061439, -1272.61793091466, -867.655530611907, -983.112970316592, -49987.0353589248, 0.000125913282944476, ]
  - [26700, -48966.0798903562, 1054.49569659993, -47911.5841937562, 699.471296248074, 52.7662, 52.7662, 52.7662, 146915.445947882, 218.464730788899, 202.679577443489, 395.824431650307, 56.8901832729012, -49967.2420219777, 0.000135270020376872, ]
  - [26800, -48969.2085225088, 1072.55645311929, -47896.6520693895, 711.451412254756, 52.7662, 52.7662, 52.7662, 146915.445947882, -143.903040618654, 419.103087476844, -176.956601802385, -673.855607530418, -49962.9550378922, 0.000145159870504403, ]
  - [26900, -48960.3718295173, 1059.75451990963, -47900.6173096077, 702.959594938181, 52.7662, 52.7662, 52.7662, 146915.445947882, 428.973141494389, 551.308051064087, 216.41589150445, 519.195481914637, -49993.4116902329, 0.000155603987394582, ]
  - [27000, -48964.5053024272, 1068.63732633194, -47895.8679760953, 708.851765141028, 52.7662, 52.7662, 52.7662, 146915.445947882, 38.5542968124941, 485.142276153855, -239.827875569361, -129.65151014701, -50029.2548153855, 0.00016662398572099, ]
  - [27100, -48959.4349545403, 1060.60370002114, -47898.8312545191, 703.522875675375, 52.7662, 52.7662, 52.7662, 146915.445947882, 424.158015243515, 509.022373683767, 14.8287444790449, 748.622927567733, -50065.3794390977, 0.000178241940897419, ]
  - [27200, -48959.1052797218, 1059.83141213994, -47899.2738675818, 703.010599326516, 52.7662, 52.7662, 52.7662, 146915.445947882, 688.376949764238, 769.362398269912, 372.941542611528, 922.826908411278, -50068.0888405734, 0.000190480389068545, ]
  - [27300, -48967.956306606, 1064.38850720896, -47903.567799397, 706.033425503363, 52.7662, 52.7662, 52.7662, 146915.445947882, -297.637361981695, -481.828629348247, -457.17022483675, 46.0867682399164, -50073.9113131512, 0.000203362326959055, ]
  - [27400, -48971.5877917127, 1069.15904692119, -47902.4287447915, 709.197834430846, 52.7662, 52.7662, 52.7662, 146915.445947882, -707.004374545116, -776.855339878218, -805.081751933671, -539.076031823462, -50049.2163331926, 0.000216911211583103, ]
  - [27500, -48963.8979491022, 1045.95215512471, -47917.9457939775, 693.804168302939, 52.7662, 52.7662, 52.7662, 146915.445947882, 16.8390224355401, -609.017351634283, 239.325642193199, 420.208776747701, -50038.9882736793, 0.000231150959815979, ]
  - [27600, -48972.3647133573, 1041.52200698646, -47930.8427063708, 690.865548950747, 52.7662, 52.7662, 52.7662, 146915.445947882, -536.255216654409, -595.721645063832, -213.800240300705, -799.243764598689, -50016.7182727204, 0.00024610594782986, ]
  - [27700, -48970.2361765202, 1054.03207168728, -47916.2041048329, 699.163763159348, 52.7662, 52.7662, 52.7662, 146915.445947882, -518.834502634099, -1057.46442854614, -483.039742330468, -15.9993370256978, -50025.0784997012, 0.000261801010395495, ]
  - [27800, -48969.8376021314, 1051.49359148785, -47918.3440106436, 697.479930744171, 52.7662, 52.7662, 52.7662, 146915.445947882, -954.239632641995, -1212.52902060098, -184.38706425695, -1465.80281306805, -50021.9625451163, 0.000278261440051671, ]
  - [27900, -48978.9306985966, 1062.47928289567, -47916.4514157009, 704.76699301857, 52.7662, 52.7662, 52.7662, 146915.445947882, -1439.91116681887, -1339.81885962095, -1607.55550112288, -1372.35913971279, -50016.6112319739, 0.000295512986144304, ]
  - [28000, -48973.2519376631, 1053.88990790289, -47919.3620297602, 699.069462645017, 52.7662, 52.7662, 52.7662, 146915.445947882, -1246.99390402693, -1522.83278677578, -1411.88570072918, -806.263224575834, -50009.1834756595, 0.00031358185373696, ]
  - [28100, -48977.4901248896, 1060.46432663289, -47917.0257982567, 703.430426095108, 52.7662, 52.7662, 52.7662, 146915.445947882, -1019.75116960586, -1124.26804113419, -896.116311894361, -1038.86915578904, -49993.2986561589, 0.000332494702394641, ]
  - [28200, -48959.0532028473, 1067.99835681694, -47891.0548460304, 708.42792193677, 52.7662, 52.7662, 52.7662, 146915.445947882, 1018.97357079943, 650.463995666883, 1135.19634440976, 1271.26037232165, -49998.6450788331, 0.000352278644842627, ]
  - [28300, -48956.7535151676, 1053.46386305308, -47903.2896521145, 698.786857277998, 52.7662, 52.7662, 52.7662, 146915.445947882, 511.596162816619, 323.131845959979, 515.549081181894, 696.107561307983, -50017.8310089232, 0.000372961245502164, ]
  - [28400, -48966.9477971199, 1044.2255540851, -47922.7222430348, 692.65887404411, 52.7662, 52.7662, 52.7662, 146915.445947882, -965.235676804953, -581.703825506729, -1150.19419607153, -1163.8090088366, -50010.7785604125, 0.000394570518904788, ]
  - [28500, -48971.2588551162, 1066.51178448293, -47904.7470706333, 707.441844249785, 52.7662, 52.7662, 52.7662, 146915.445947882, -276.578434267562, -660.122957678023, -117.98319490127, -51.62915022339, -49999.3996859, 0.000417134927987054, ]
  - [28600, -48963.463359464, 1053.81470281652, -47909.6486566475, 699.019577378138, 52.7662, 52.7662, 52.7662, 146915.445947882, 86.8530320503717, 98.0481317472396, 210.94423922391, -48.4332748200356, -50013.2886266312, 0.000440683382267422, ]
  - [28700, -48968.6168710046, 1053.72252271732, -47914.8943482873, 698.958432194062, 52.7662, 52.7662, 52.7662, 146915.445947882, -546.535615558156, -469.949714822864, -671.392855752806, -498.264276098801, -50016.1505079169, 0.000465245235907057, ]
  - [28800, -48955.9426054488, 1064.65777191305, -47891.2848335358, 706.212034986749, 52.7662, 52.7662, 52.7662, 146915.445947882, 1441.2615403025, 1581.76311878568, 1510.74300450518, 1231.27849761664, -50024.8869397633, 0.000490850285656287, ]
  - [28900, -48955.7772028586, 1054.90435982875, -47900.8728430298, 699.742371985328, 52.7662, 52.7662, 52.7662, 146915.445947882, 595.40098431559, 242.267323190479, 744.748774427405, 799.186855328885, -50022.9163890506, 0.000517528768688429, ]
  - [29000, -48966.9184772656, 1055.50702345259, -47911.411453813, 700.142132655315, 52.7662, 52.7662, 52.7662, 146915.445947882, -510.982007845271, -749.03330128356, -439.929681835451, -343.983040416802, -50024.1927697541, 0.00054531136032273, ]
  - [29100, -48969.7892785461, 1041.90099108745, -47927.8882874586, 691.116937838569, 52.7662, 52.7662, 52.7662, 146915.445947882, -931.472668556291, -1079.33155955176, -1076.18449417778, -638.90195193933, -50033.6910965672, 0.000574229171638096, ]
  - [29200, -48976.8509223696, 1035.38502475316, -47941.4658976164, 686.794747209579, 52.7662, 52.7662, 52.7662, 146915.445947882, -1697.60410979444, -1506.89790332, -1627.19932503145, -1958.71510103188, -50038.5559513026, 0.000604313746979337, ]
  - [29300, -48967.0046109373, 1053.21595259716, -47913.7886583401, 698.622412559526, 52.7662, 52.7662, 52.7662, 146915.445947882, -102.885170483725, -158.053983057914, 107.002970713001, -257.604499106263, -50043.6537656777, 0.000635597061357593, ]
  - [29400, -48965.5340290502, 1050.30495585882, -47915.2290731914, 696.691481339508, 52.7662, 52.7662, 52.7662, 146915.445947882, -20.2318189247286, 67.6872243310067, -233.810368175172, 105.427687069973, -50031.8810633196, 0.000668111517746635, ]
  - [29500, -48966.7485897218, 1053.33909676652, -47913.4094929552, 698.704096924904, 52.7662, 52.7662, 52.7662, 146915.445947882, -341.089521672102, -443.51091123959, -284.577506986411, -295.180146790307, -50024.4681991288, 0.000701889944276683, ]
  - [29600, -48964.0637410345, 1048.13196605736, -47915.9317749772, 695.25008712798, 52.7662, 52.7662, 52.7662, 146915.445947882, 385.042999518206, 284.766271872026, -116.691612876849, 987.05433955944, -50040.044155612, 0.000736965591327429, ]
  - [29700, -48965.0133234902, 1055.51076459659, -47909.5025588936, 700.144614242343, 52.7662, 52.7662, 52.7662, 146915.445947882, -270.680401021677, -179.431679116709, -376.130242514913, -256.479281433414, -50042.7291502715, 0.000773372128521878, ]
  - [29800, -48959.7143278368, 1048.16525139054, -47911.5490764462, 695.272166056536, 52.7662, 52.7662, 52.7662, 146915.445947882, 493.089856874829, 771.367512282568, 398.936502570449, 308.96555577147, -50035.5519732113, 0.00081114364162266, ]
  - [29900, -48958.968680985, 1059.91892842453, -47899.0497525605, 703.068650894882, 52.7662, 52.7662, 52.7662, 146915.445947882, 482.15186485345, 576.749888597614, 166.602482823774, 703.103223138968, -50025.5890124499, 0.000850314629332433, ]
  - [30000, -48960.9668828224, 1060.84436078499, -47900.1225220374, 703.682511506027, 52.7662, 52.7662, 52.7662, 146915.445947882, 112.944174599341, 83.7861753421467, -280.546900856538, 535.593249312414, -50023.3810047696, 0.000890920000000001, ]
  - [30100, -48962.1673258556, 1065.14281682623, -47897.0245090294, 706.533776455449, 52.7662, 52.7662, 52.7662, 146915.445947882, 442.778741623498, 476.935458591434, 634.411767598304, 216.988998680754, -50019.5030546227, 0.000932995068233718, ]
  - [30200, -48956.4159918581, 1066.77585493885, -47889.6401369193, 707.617008268664, 52.7662, 52.7662, 52.7662, 146915.445947882, 667.888115514104, 822.017669217602, 675.840349922808, 505.8063274019, -50021.9339463391, 0.000976575551423828, ]
  - [30300, -48963.979837141, 1063.82285173996, -47900.1569854011, 705.65821319533, 52.7662, 52.7662, 52.7662, 146915.445947882, 485.407528728972, 787.360764316439, 195.336518004074, 473.525303866402, -49986.4557997759, 0.00102169756617526, ]
  - [30400, -48975.6189104714, 1059.35109430461, -47916.2678161668, 702.691993437493, 52.7662, 52.7662, 52.7662, 146915.445947882, -1614.50484218917, -1734.41982628237, -1576.03847924995, -1533.05622103521, -50001.4818293148, 0.00106839762465251, ]
  - [30500, -48962.3517366296, 1061.74132963476, -47900.6104069949, 704.277491614587, 52.7662, 52.7662, 52.7662, 146915.445947882, 468.834204846021, 699.886267519679, 162.989331829959, 543.627015188431, -50022.9825774765, 0.00111671263083812, ]
  - [30600, -48964.177606395, 1052.00193498796, -47912.175671407, 697.817126702497, 52.7662, 52.7662, 52.7662, 146915.445947882, -337.035690655458, -146.104046652552, -686.890004111163, -178.113021202655, -50029.0203754143, 0.00116667987670637, ]
  - [30700, -48958.4762753264, 1052.33409211709, -47906.1421832093, 698.037454180759, 52.7662, 52.7662, 52.7662, 146915.445947882, 860.093626406995, 1089.04728046176, 505.625212810552, 985.608385948673, -50031.8208622876, 0.00121833703831365, ]
  - [30800, -48962.3004181536, 1057.42389757186, -47904.8765205817, 701.413639432698, 52.7662, 52.7662, 52.7662, 146915.445947882, 98.9330035647369, -205.086380986532, 584.23792844099, -82.3525367602523, -50033.8855376207, 0.00127172217180712, ]
  - [30900, -48961.9985209378, 1056.15729128868, -47905.8412296491, 700.573470296317, 52.7662, 52.7662, 52.7662, 146915.445947882, 101.581452469053, -181.830396042005, 316.096164553561, 170.4785888956, -50015.6329748694, 0.00132687370935312, ]
  - [31000, -48957.6460887034, 1064.8696782457, -47892.7764104577, 706.352597340543, 52.7662, 52.7662, 52.7662, 146915.445947882, 548.935032071469, 1191.75381652989, 343.570112508977, 111.481167175542, -50020.0014136644, 0.00138383045498687, ]
  - [31100, -48956.0603875722, 1060.84211467004, -47895.2182729022, 703.681021606215, 52.7662, 52.7662, 52.7662, 146915.445947882, 601.70225315859, 500.693045222634, 541.920167850813, 762.493546402327, -50040.2547094338, 0.00144263158038501, ]
  - [31200, -48951.9726028805, 1059.33613778192, -47892.6364650986, 702.682072431317, 52.7662, 52.7662, 52.7662, 146915.445947882, 1568.06863188517, 1391.49645383198, 1707.55553504623, 1605.15390677731, -50036.8246586297, 0.00150331662056234, ]
  - [31300, -48963.9155713383, 1068.25876421765, -47895.6568071206, 708.600656166708, 52.7662, 52.7662, 52.7662, 146915.445947882, -154.273217587848, -87.4059427721245, 290.924358055084, -666.338068046503, -50041.369890361, 0.00156592546949443, ]
  - [31400, -48965.4590901184, 1051.44815842582, -47914.0109316926, 697.449793947129, 52.7662, 52.7662, 52.7662, 146915.445947882, -586.822435162862, -496.746487370354, -599.225139467217, -664.495678651014, -50038.4306721626, 0.00163049837566735, ]
  - [31500, -48969.4328106893, 1048.78554674294, -47920.6472639463, 695.683622258391, 52.7662, 52.7662, 52.7662, 146915.445947882, -444.006472686226, -474.746752016041, -237.290208794959, -619.982457247672, -50023.33103694, 0.00169707593755625, ]
  - [31600, -48964.7603168499, 1053.44927293014, -47911.3110439197, 698.777179313226, 52.7662, 52.7662, 52.7662, 146915.445947882, 9.323287210351, 587.210821910766, -337.046255037296, -222.194705242416, -50011.1482868595, 0.00176569909903396, ]
  - [31700, -48962.0531973928, 1061.34585449093, -47900.7073429018, 704.015163838023, 52.7662, 52.7662, 52.7662, 146915.445947882, 140.790571229887, 177.535024889756, -55.757420805646, 300.594109605554, -50008.2734132359, 0.0018364091447113, ]
[...]
  - [232600, -48967.293059431, 1057.99938506128, -47909.2936743697, 701.795373546453, 52.7662, 52.7662, 52.7662, 146915.445947882, -414.738776090589, -153.886835596536, -485.553219285955, -604.776273389274, -50045.9898354664, 0.000216911211583102, ]
  - [232700, -48968.5781283838, 1043.29092962304, -47925.2871987608, 692.038916100147, 52.7662, 52.7662, 52.7662, 146915.445947882, -197.131337510184, -20.2680451911331, -401.269524644906, -169.856442694511, -50043.5444172057, 0.000203362326959055, ]
  - [232800, -48971.9301629444, 1050.86323174439, -47921.0669312, 697.061798599788, 52.7662, 52.7662, 52.7662, 146915.445947882, -958.06932930863, -1099.51396885795, -885.936841912228, -888.757177155711, -50024.592896427, 0.000190480389068545, ]
  - [232900, -48982.3302903348, 1047.9745407363, -47934.3557495985, 695.145663284676, 52.7662, 52.7662, 52.7662, 146915.445947882, -1673.16665723144, -1571.54904794949, -2039.92865854447, -1408.02226520036, -49997.6638904482, 0.000178241940897418, ]
  - [233000, -48964.5838801526, 1054.52735912227, -47910.0565210303, 699.492298728799, 52.7662, 52.7662, 52.7662, 146915.445947882, -158.39810473342, -78.6300226379841, -15.3206569273004, -381.243634634973, -50006.0459845701, 0.000166623985720989, ]
  - [233100, -48958.4418277117, 1058.10149315133, -47900.3403345603, 701.863104195647, 52.7662, 52.7662, 52.7662, 146915.445947882, 793.520127464184, 631.759939396965, 805.141740876681, 943.658702118907, -50008.5704690965, 0.000155603987394581, ]
  - [233200, -48959.9706850616, 1065.76801251076, -47894.2026725508, 706.948483160536, 52.7662, 52.7662, 52.7662, 146915.445947882, 102.849204690002, -14.9125456429921, 187.149900803076, 136.310258909918, -50046.7663697193, 0.000145159870504403, ]
  - [233300, -48952.8085994311, 1070.55182579269, -47882.2567736384, 710.121696752688, 52.7662, 52.7662, 52.7662, 146915.445947882, 930.249167381255, 910.319905220715, 1072.60254976261, 807.825047160438, -50033.3972780539, 0.000135270020376871, ]
  - [233400, -48943.1998726574, 1059.91901056846, -47883.280862089, 703.068705382843, 52.7662, 52.7662, 52.7662, 146915.445947882, 1668.23486775427, 2001.14499200185, 1613.80862186898, 1389.75098939198, -50036.8483239428, 0.000125913282944476, ]
  - [233500, -48970.930159874, 1058.29899308681, -47912.6311667871, 701.994110454212, 52.7662, 52.7662, 52.7662, 146915.445947882, -889.316558385902, -1244.06515372826, -944.726490874528, -479.158030554923, -50029.5598048371, 0.000117068964466275, ]
  - [233600, -48964.539451093, 1054.14448905887, -47910.3949620341, 699.238332192564, 52.7662, 52.7662, 52.7662, 146915.445947882, 155.614736707689, 15.7068272233083, 339.162539458521, 111.974843441235, -50040.3863392775, 0.000108716831101108, ]
  - [233700, -48962.854451005, 1048.96079235945, -47913.8936586455, 695.799866714334, 52.7662, 52.7662, 52.7662, 146915.445947882, 15.7145437382692, 290.304910429301, -111.667281724254, -131.49399749024, -50051.918982412, 0.000100837108331576, ]
  - [233800, -48952.9839607413, 1054.08398549383, -47898.8999752474, 699.198198783576, 52.7662, 52.7662, 52.7662, 146915.445947882, 1373.83954146852, 1721.07370287801, 1214.79733021614, 1185.64759131139, -50060.3821932041, 9.34104802368709e-05, ]
  - [233900, -48967.6156112255, 1053.67854431179, -47913.9370669137, 698.929260304199, 52.7662, 52.7662, 52.7662, 146915.445947882, -822.582813363758, -811.271501784809, -912.181298379076, -744.29563992739, -50049.3984005569, 8.64180886124633e-05, ]
  - [234000, -48972.4491579716, 1063.47654306465, -47908.972614907, 705.428498670364, 52.7662, 52.7662, 52.7662, 146915.445947882, -875.665263850697, -1510.02214504036, -790.617499657327, -326.356146854402, -50069.9410418058, 7.98415319347196e-05, ]
  - [234100, -48956.6932001699, 1051.83862062672, -47904.8545795431, 697.708796523126, 52.7662, 52.7662, 52.7662, 146915.445947882, 633.58136226976, 626.580482721675, 826.308109394801, 447.8554946928, -50070.7032354911, 7.36628641684439e-05, ]
  - [234200, -48955.7956609497, 1053.02703305295, -47902.7686278968, 698.497097872229, 52.7662, 52.7662, 52.7662, 146915.445947882, 1173.38841099754, 1706.04861893074, 701.915754600471, 1112.20085946141, -50071.5464877406, 6.78645934153684e-05, ]
  - [234300, -48957.6668438822, 1062.26636706594, -47895.4004768162, 704.625761042101, 52.7662, 52.7662, 52.7662, 146915.445947882, 995.240357984408, 738.988353653081, 909.163293686677, 1337.56942661347, -50052.1204856071, 6.24296804015905e-05, ]
  - [234400, -48968.9599025646, 1061.67801448108, -47907.2818880835, 704.235493214066, 52.7662, 52.7662, 52.7662, 146915.445947882, -733.99195907707, -926.73395368608, -613.212041551372, -662.029881993758, -50058.3071611817, 5.73415368019447e-05, ]
  - [234500, -48960.7996504824, 1047.83997118627, -47912.9596792962, 695.056400201006, 52.7662, 52.7662, 52.7662, 146915.445947882, 185.111433539784, 349.434079386779, 126.998846163563, 78.9013750690137, -50060.694241749, 5.25840233992875e-05, ]
  - [234600, -48964.4857197321, 1062.36279951707, -47902.122920215, 704.689726909202, 52.7662, 52.7662, 52.7662, 146915.445947882, -242.697386473758, -94.5496626302253, -194.708283841234, -438.834212949814, -50051.9071980263, 4.81414480766631e-05, ]
  - [234700, -48955.0075785324, 1059.95874068833, -47895.0488378441, 703.095059286929, 52.7662, 52.7662, 52.7662, 146915.445947882, 1295.20058021156, 841.822241411753, 1592.59388720641, 1451.18561201651, -50043.085880124, 4.39985636403036e-05, ]
  - [234800, -48971.9354835002, 1051.42808286049, -47920.5074006397, 697.436477362006, 52.7662, 52.7662, 52.7662, 146915.445947882, -456.564818482082, -337.430691434597, -383.986446756314, -648.277317255341, -50038.3418221721, 4.01405654714093e-05, ]
  - [234900, -48958.6733882436, 1056.70919166363, -47901.96419658, 700.939558533484, 52.7662, 52.7662, 52.7662, 146915.445947882, 755.64508478033, 620.436031007552, 1392.54001898643, 253.95920434701, -50029.2160786837, 3.65530890046418e-05, ]
  - [235000, -48952.8237862567, 1049.51415968993, -47903.3096265668, 696.166928016904, 52.7662, 52.7662, 52.7662, 146915.445947882, 654.697144216879, 809.201297607642, 602.329975991824, 552.560159051166, -50028.6949976029, 3.32222070312498e-05, ]
  - [235100, -48962.639861105, 1055.20908962474, -47907.4307714803, 699.944506281461, 52.7662, 52.7662, 52.7662, 146915.445947882, 52.1588193207295, -54.0472224597028, 27.8396386338234, 182.684041788074, -50006.3312628258, 3.01344268247407e-05, ]
  - [235200, -48970.0625274434, 1066.49294461241, -47903.569582831, 707.429347329507, 52.7662, 52.7662, 52.7662, 146915.445947882, -1094.25755443373, -1116.2492712421, -1128.89887517116, -1037.62451688795, -49998.7828927401, 2.72766870869938e-05, ]
  - [235300, -48951.7434092029, 1059.66252691735, -47892.0808822856, 702.898573866435, 52.7662, 52.7662, 52.7662, 146915.445947882, 1355.7843719271, 1345.72106546501, 1343.9009601694, 1377.73109014688, -50004.147069552, 2.46363547127045e-05, ]
  - [235400, -48960.3487868425, 1058.39058350328, -47901.9582033393, 702.054864488138, 52.7662, 52.7662, 52.7662, 146915.445947882, 15.1629558046759, -76.9412324174403, 104.634235671128, 17.7958641603386, -50015.5421383127, 2.22012213700348e-05, ]
  - [235500, -48962.2796760008, 1065.87735400866, -47896.4023219921, 707.021011895853, 52.7662, 52.7662, 52.7662, 146915.445947882, 319.129140468909, 110.134919704227, 323.429401177295, 523.823100525208, -50012.8819293905, 1.99594998953343e-05, ]
  - [235600, -48958.2809364266, 1057.02758932242, -47901.2533471042, 701.150759037982, 52.7662, 52.7662, 52.7662, 146915.445947882, 355.52841821085, 421.6789004112, 189.484382673347, 455.421971547998, -50030.7012493624, 1.78998204997852e-05, ]
  - [235700, -48959.4083536585, 1051.39958642075, -47908.0087672378, 697.417575016832, 52.7662, 52.7662, 52.7662, 146915.445947882, 739.557920536223, 459.305408661273, 802.37687934365, 956.991473603748, -50038.274916666, 1.6011226785813e-05, ]
  - [235800, -48970.0711902418, 1053.14390369606, -47916.9272865458, 698.57462086307, 52.7662, 52.7662, 52.7662, 146915.445947882, -296.689988784183, -339.655021787025, -418.175447296212, -132.239497269309, -50049.2519106648, 1.42831715710918e-05, ]
  - [235900, -48967.2438447044, 1069.40280699329, -47897.8410377111, 709.359526104085, 52.7662, 52.7662, 52.7662, 146915.445947882, 132.919903128035, -198.225692998441, 253.22113273278, 343.764269649765, -50035.6066429017, 1.27055125179639e-05, ]
  - [236000, -48957.9223821192, 1047.96829870846, -47909.9540834107, 695.141522803768, 52.7662, 52.7662, 52.7662, 146915.445947882, 792.832025138756, 1142.98931820227, 618.762940179674, 616.743817034321, -50041.1033372805, 1.12685075660799e-05, ]
  - [236100, -48963.4614138406, 1058.60807284419, -47904.8533409964, 702.199130179974, 52.7662, 52.7662, 52.7662, 146915.445947882, -357.579034330533, 1.66475137908556, -724.576306800543, -349.825547570142, -50068.3510904128, 9.96281016605479e-06, ]
  - [236200, -48964.1967884164, 1055.05992016471, -47909.1368682517, 699.845558741039, 52.7662, 52.7662, 52.7662, 146915.445947882, 94.6509464831488, -377.082725514212, 156.879442489747, 504.156122473915, -50084.2499778883, 8.77946431192305e-06, ]
  - [236300, -48961.8702565067, 1055.13530761237, -47906.7349488943, 699.895564972361, 52.7662, 52.7662, 52.7662, 146915.445947882, 193.548515837624, -170.817433387314, 35.5125831795085, 715.950397720676, -50093.1384462934, 7.70989937016554e-06, ]
  - [236400, -48958.265443466, 1066.01055908194, -47892.2548843841, 707.109369890646, 52.7662, 52.7662, 52.7662, 146915.445947882, 769.810083629339, 1009.72804471886, 655.050676720146, 644.65152944901, -50060.8036324876, 6.74592470306788e-06, ]
  - [236500, -48964.6359643437, 1060.13846053115, -47904.4975038126, 703.214271600289, 52.7662, 52.7662, 52.7662, 146915.445947882, -145.047990982303, -300.355110168958, -390.463536872128, 255.674674094176, -50071.500918203, 5.87972408415909e-06, ]
  - [236600, -48965.3784876709, 1057.28313714273, -47908.0953505281, 701.320269796253, 52.7662, 52.7662, 52.7662, 146915.445947882, -145.840354923601, -971.412815904237, 315.197679808605, 218.694071324832, -50043.8250478451, 5.10384990346715e-06, ]
  - [236700, -48963.4814180778, 1056.25819203863, -47907.2232260392, 700.640400088999, 52.7662, 52.7662, 52.7662, 146915.445947882, -216.801433934082, -159.986640430516, 175.466902488661, -665.884563860386, -50082.5722922252, 4.41121716031669e-06, ]
  - [236800, -48969.8373438322, 1055.00606760304, -47914.8312762292, 699.809837095854, 52.7662, 52.7662, 52.7662, 146915.445947882, -527.754243182089, -201.705030296889, -684.03973733048, -697.517961918896, -50043.9683502106, 3.79509724138197e-06, ]
  - [236900, -48958.1522011188, 1064.52742343739, -47893.6247776814, 706.125571838985, 52.7662, 52.7662, 52.7662, 146915.445947882, 931.10839587264, 1291.06163784593, 535.661784423565, 966.60176534842, -50031.8196650784, 3.24911148169665e-06, ]
  - [237000, -48957.4436609341, 1067.71262299813, -47889.731037936, 708.23838811006, 52.7662, 52.7662, 52.7662, 146915.445947882, 885.912862235527, 725.525817785618, 790.05668407002, 1142.15608485094, -50026.4082432018, 2.76722450630996e-06, ]
  - [237100, -48965.4903572633, 1048.42069190041, -47917.0696653629, 695.441605633319, 52.7662, 52.7662, 52.7662, 146915.445947882, -349.943125930373, -315.990369417189, -38.5392550275659, -695.299753346368, -50038.9392524881, 2.34373735026696e-06, ]
  - [237200, -48975.9572031414, 1057.23657758317, -47918.7206255582, 701.289385767443, 52.7662, 52.7662, 52.7662, 146915.445947882, -590.360859016526, -679.285713851972, -119.991783496719, -971.805079700887, -50063.6529416788, 1.97328035457889e-06, ]
  - [237300, -48951.2792794995, 1055.21020970559, -47896.069069794, 699.945249256902, 52.7662, 52.7662, 52.7662, 146915.445947882, 1422.68097182537, 1496.97974390572, 1533.97632278771, 1237.08684878267, -50064.4603195439, 1.65080583583743e-06, ]
  - [237400, -48978.2118176544, 1064.35869201928, -47913.8531256352, 706.013648400958, 52.7662, 52.7662, 52.7662, 146915.445947882, -1073.62181440081, -1409.7113816071, -636.461865532013, -1174.69219606332, -50048.7689833483, 1.37158052711493e-06, ]
  - [237500, -48962.935575456, 1049.42878753492, -47913.506787921, 696.110298699103, 52.7662, 52.7662, 52.7662, 146915.445947882, 200.34482042376, 567.991647849974, -248.054393247287, 281.097206668591, -50034.2576996718, 1.13117778778074e-06, ]
  - [237600, -48963.4286529492, 1057.80525459908, -47905.6233983501, 701.666602337171, 52.7662, 52.7662, 52.7662, 146915.445947882, -401.185646423637, -5.0545179613666, -915.850060539646, -282.652360769896, -50057.3612004219, 9.25469579851505e-07, ]
  - [237700, -48966.8332848851, 1051.23663390395, -47915.5966509812, 697.309484857222, 52.7662, 52.7662, 52.7662, 146915.445947882, -484.608401768806, 73.2923224379275, -620.099069516314, -907.018458228032, -50073.6088550172, 7.50618208481688e-07, ]
  - [237800, -48952.6715724856, 1048.36140901908, -47904.3101634665, 695.402281931966, 52.7662, 52.7662, 52.7662, 146915.445947882, 1055.44082064777, 1072.59561191065, 893.97650159323, 1199.75034843944, -50065.2309685908, 6.03067824188189e-07, ]
  - [237900, -48954.1853011255, 1054.39653449824, -47899.7887666272, 699.405519740844, 52.7662, 52.7662, 52.7662, 146915.445947882, 850.217227531846, 588.412006749231, 717.653186033005, 1244.58648981331, -50042.5579908745, 4.79535684391034e-07, ]
  - [238000, -48957.5697912619, 1062.66288654972, -47894.9069047122, 704.888781553419, 52.7662, 52.7662, 52.7662, 146915.445947882, 599.472911373887, 726.687199906688, 194.399651077202, 877.331883137769, -50053.9811684834, 3.77003171839991e-07, ]
  - [238100, -48956.3284582487, 1059.49583473747, -47896.8326235113, 702.788003102126, 52.7662, 52.7662, 52.7662, 146915.445947882, 512.473944457684, 63.0066657009917, 636.850494619806, 837.564673052252, -50045.8937929046, 2.92706567484834e-07, ]
  - [238200, -48964.3350353983, 1058.76909216413, -47905.5659432341, 702.305938005559, 52.7662, 52.7662, 52.7662, 146915.445947882, -92.9761784420281, 3.65926891956943, -356.266862261366, 73.6790580157101, -50049.6601951615, 2.24127575334843e-07, ]
  - [238300, -48973.7067836279, 1049.50048389561, -47924.2062997323, 696.157856547376, 52.7662, 52.7662, 52.7662, 146915.445947882, -1355.91821133589, -1429.93612088658, -1280.65657468469, -1357.16193843638, -50074.3401531728, 1.68983596840973e-07, ]
  - [238400, -48977.5119134111, 1061.76278982449, -47915.7491235867, 704.291726652984, 52.7662, 52.7662, 52.7662, 146915.445947882, -1446.05987753579, -1606.26841379584, -1376.43205800187, -1355.47916080966, -50079.1645853758, 1.25217752321901e-07, ]
  - [238500, -48956.446956255, 1056.15171343449, -47900.2952428205, 700.569770377092, 52.7662, 52.7662, 52.7662, 146915.445947882, 770.364242967786, 474.826092070274, 1096.51309820143, 739.753538631652, -50085.2071864112, 9.09886469429854e-08, ]
  - [238600, -48970.3262437457, 1064.19907900845, -47906.1271647372, 705.907773412618, 52.7662, 52.7662, 52.7662, 146915.445947882, -541.108159233314, -873.441231722875, -315.910839371235, -433.972406605832, -50072.115967472, 6.46598787448784e-08, ]
  - [238700, -48957.4225750329, 1062.7761825649, -47894.646392468, 704.963933411177, 52.7662, 52.7662, 52.7662, 146915.445947882, 926.984989671708, 935.262909984238, 797.086959380246, 1048.60509965064, -50087.2899432128, 4.47892862063161e-08, ]
  - [238800, -48962.2222683651, 1068.2378024908, -47893.9844658743, 708.58675177023, 52.7662, 52.7662, 52.7662, 146915.445947882, -223.533008882341, -112.14119556127, -302.735512019731, -255.72231906602, -50072.5229246357, 3.01179328132691e-08, ]
  - [238900, -48954.895736273, 1057.06040168792, -47897.8353345851, 701.172524236178, 52.7662, 52.7662, 52.7662, 146915.445947882, 1225.16729351278, 1473.59520155418, 1273.25109076858, 928.655588215575, -50045.6348130654, 1.95588260943479e-08, ]
  - [239000, -48966.7630643352, 1039.31300877231, -47927.4500555628, 689.400269529276, 52.7662, 52.7662, 52.7662, 146915.445947882, -195.731194436928, -721.383344380134, 338.89685620825, -204.707095138903, -50029.5218999826, 1.21853685699994e-08, ]
  - [239100, -48950.2021858865, 1033.20621737626, -47916.9959685102, 685.349494066193, 52.7662, 52.7662, 52.7662, 146915.445947882, 1108.30253412856, 1554.69876806045, 797.25194558712, 972.956888738095, -50027.8681363591, 7.21953805066191e-09, ]
  - [239200, -48963.7053401173, 1056.28260573176, -47907.4227343855, 700.656594254267, 52.7662, 52.7662, 52.7662, 146915.445947882, 291.626464914722, 530.382694225452, 262.326708023099, 82.1699924956153, -50019.6985698886, 4.01979470665194e-09, ]
  - [239300, -48972.9989273306, 1057.53119220487, -47915.4677351257, 701.484810435361, 52.7662, 52.7662, 52.7662, 146915.445947882, -1037.58574774189, -762.031854495259, -1108.50480053494, -1242.22058819547, -50034.6299113579, 2.06871232013228e-09, ]
  - [239400, -48959.6451002822, 1063.43035596671, -47896.2147443155, 705.397861703928, 52.7662, 52.7662, 52.7662, 146915.445947882, 811.153152811098, 158.533832599457, 1378.96873765917, 895.95688817467, -50045.940186075, 9.60331117066315e-10, ]
  - [239500, -48965.85821473, 1060.60591968469, -47905.2522950453, 703.524348029359, 52.7662, 52.7662, 52.7662, 146915.445947882, 301.004554587249, 233.602954988363, -153.795931061577, 823.206639834958, -50035.6860262892, 3.87229564589803e-10, ]
  - [239600, -48971.9110767586, 1068.30971646254, -47903.601360296, 708.634453964931, 52.7662, 52.7662, 52.7662, 146915.445947882, -426.039232186479, -292.767107750172, -668.705812298306, -316.644776510958, -50039.0698660093, 1.27312506734493e-10, ]
  - [239700, -48965.1306199069, 1066.34368068821, -47898.7869392187, 707.330337128822, 52.7662, 52.7662, 52.7662, 146915.445947882, -613.703384263433, -726.665577629216, -694.301433338642, -420.143141822446, -50072.4773783758, 3.03129989146573e-11, ]
  - [239800, -48967.2074203677, 1053.70548556778, -47913.5019347999, 698.947131060155, 52.7662, 52.7662, 52.7662, 146915.445947882, -797.563764714279, -1101.25392977382, -676.864978100502, -614.57238626851, -50067.9380840274, 4.00518903939475e-12, ]
  - [239900, -48957.3533860612, 1049.71494963937, -47907.6384364218, 696.300116617546, 52.7662, 52.7662, 52.7662, 146915.445947882, 792.895165313979, 662.368668535822, 974.416427790139, 741.90039961598, -50052.6481889843, 1.25580539685001e-13, ]
  - [240000, -48967.5621778942, 1062.78836546752, -47904.7738124267, 704.97201461124, 52.7662, 52.7662, 52.7662, 146915.445947882, 110.497077879416, 85.1505847480941, 240.01509858353, 6.32555030661817, -50037.7475139487, 0, ]
...
Loop time of 127.291 on 64 procs for 100000 steps with 11664 atoms

Performance: 67.876 ns/day, 0.354 hours/ns, 785.603 timesteps/s, 9.163 Matom-step/s
70.3% CPU use with 64 MPI tasks x 1 OpenMP threads

MPI task timing breakdown:
Section |  min time  |  avg time  |  max time  |%varavg| %total
---------------------------------------------------------------
Pair    | 61.343     | 63.853     | 66.565     |  14.6 | 50.16
Neigh   | 0.0021507  | 0.0022598  | 0.0024256  |   0.1 |  0.00
Comm    | 17.259     | 19.841     | 22.368     |  27.1 | 15.59
Output  | 0.36698    | 0.40903    | 0.4104     |   0.8 |  0.32
Modify  | 13.148     | 14.235     | 42.011     |  93.1 | 11.18
Other   |            | 28.95      |            |       | 22.74

Nlocal:         182.25 ave         196 max         173 min
Histogram: 7 5 5 18 6 11 8 2 0 2
Nghost:        1275.75 ave        1285 max        1262 min
Histogram: 2 0 2 8 11 6 18 5 5 7
Neighs:        7410.45 ave        8133 max        6987 min
Histogram: 7 8 13 6 12 10 6 0 1 1

Total # of neighbors = 474269
Ave neighs/atom = 40.660922
Neighbor list builds = 6
Dangerous builds = 0
#------------------------------------------------------------------------------#
Total wall time: 0:04:52
