LAMMPS (2 Aug 2023)
OMP_NUM_THREADS environment is not set. Defaulting to 1 thread. (src/comm.cpp:98)
  using 1 OpenMP thread(s) per MPI task
#--------------------------- Simulation variables -----------------------------#
# Initalizes the random number generator.
variable RND equal round(random(0,999,${RANDOM}))
variable RND equal round(random(0,999,1))

# Simulation control parameters.
variable t_eq equal 20000 # Equilibration time.
variable t equal 100000 # Switching time.

#---------------------------- Atomic setup ------------------------------------#
units            metal
# Create atoms.
lattice          bcc ${a}
lattice          bcc 2.9782444444444445
Lattice spacing in x,y,z = 2.9782444 2.9782444 2.9782444
region           sim_box block 0 18 0 18 0 18
create_box       1 sim_box
Created orthogonal box = (0 0 0) to (53.6084 53.6084 53.6084)
  4 by 4 by 4 MPI processor grid
create_atoms     1 box
Created 11664 atoms
  using lattice units in orthogonal box = (0 0 0) to (53.6084 53.6084 53.6084)
  create_atoms CPU = 0.003 seconds

# Define interatomic potential.
pair_style       eam
pair_coeff       * * ../Fe.eam
#----------------------------- Run simulation ---------------------------------#
# Initial temperature to accelerate equilibration.
velocity all create ${T} ${RND} mom yes rot yes dist gaussian
velocity all create 1600 ${RND} mom yes rot yes dist gaussian
velocity all create 1600 80 mom yes rot yes dist gaussian

# Integrator, Frenkel-Ladd modifier, and thermostat.
fix fe all nve
fix fti all ti/spring ${k} ${t} ${t_eq} function 2
fix fti all ti/spring 2.6026867804058518 ${t} ${t_eq} function 2
fix fti all ti/spring 2.6026867804058518 100000 ${t_eq} function 2
fix fti all ti/spring 2.6026867804058518 100000 20000 function 2
fix ft all langevin ${T} ${T} 0.1 ${RND} zero yes
fix ft all langevin 1600 ${T} 0.1 ${RND} zero yes
fix ft all langevin 1600 1600 0.1 ${RND} zero yes
fix ft all langevin 1600 1600 0.1 178 zero yes
compute tcom all temp/com
fix_modify ft temp tcom

# Setup thermo output.
variable dE equal pe-f_fti
variable lambda equal f_fti[1]

thermo_style custom step pe ke etotal temp lx ly lz vol press pxx pyy pzz v_dE v_lambda
thermo 100
thermo_modify line yaml
thermo_modify flush yes

# Forward integration.
run ${t_eq}
run 20000

CITE-CITE-CITE-CITE-CITE-CITE-CITE-CITE-CITE-CITE-CITE-CITE-CITE

Your simulation uses code contributions which should be cited:

- ti/spring command: doi:10.1016/j.commatsci.2015.10.050

@article{freitas2016,
  author={Freitas, Rodrigo and Asta, Mark and de Koning, Maurice},
  title={Nonequilibrium Free-Energy Calculation of Solids Using {LAMMPS}},
  journal={Computational Materials Science},
  volume={112},
  pages={333--341},
  year={2016},
  publisher={Elsevier}
}

CITE-CITE-CITE-CITE-CITE-CITE-CITE-CITE-CITE-CITE-CITE-CITE-CITE

Neighbor list info ...
  update: every = 1 steps, delay = 0 steps, check = yes
  max neighbors/atom: 2000, page size: 100000
  master list distance cutoff = 6.409104
  ghost atom cutoff = 6.409104
  binsize = 3.204552, bins = 17 17 17
  1 neighbor lists, perpetual/occasional/extra = 1 0 0
  (1) pair eam, perpetual
      attributes: half, newton on
      pair build: half/bin/atomonly/newton
      stencil: half/bin/3d
      bin: standard
Per MPI rank memory allocation (min/avg/max) = 3.736 | 3.736 | 3.736 Mbytes
---
keywords: ['Step', 'PotEng', 'KinEng', 'TotEng', 'Temp', 'Lx', 'Ly', 'Lz', 'Volume', 'Press', 'Pxx', 'Pyy', 'Pzz', 'v_dE', 'v_lambda', ]
data:
  - [0, -49135.3482420375, 2412.097713816, -46723.2505282215, 1600, 53.6084, 53.6084, 53.6084, 154063.065938641, -164816.389640967, -164635.477738236, -164931.549933952, -164882.141250712, -49135.3482420375, 0, ]
  - [100, -47720.4909887569, 2036.85901343483, -45683.631975322, 1351.09552271825, 53.6084, 53.6084, 53.6084, 154063.065938641, -22967.8466763523, -24293.4508458953, -22131.711450084, -22478.3777330777, -47720.4909887569, 0, ]
  - [200, -47579.6462346756, 2289.14239210367, -45290.5038425719, 1518.44090162148, 53.6084, 53.6084, 53.6084, 154063.065938641, -8949.49945579241, -8515.83599689126, -9921.6689982233, -8410.99337226266, -47579.6462346756, 0, ]
  - [300, -47538.4639904813, 2376.84846766562, -45161.6155228156, 1576.61836271493, 53.6084, 53.6084, 53.6084, 154063.065938641, -4266.71558214007, -5523.37092725089, -4091.4879176666, -3185.28790150272, -47538.4639904813, 0, ]
  - [400, -47513.047186474, 2386.48442158578, -45126.5627648882, 1583.01011300926, 53.6084, 53.6084, 53.6084, 154063.065938641, -2403.48811033185, -2014.09430705247, -2523.01588275263, -2673.35414119043, -47513.047186474, 0, ]
  - [500, -47494.1945647406, 2405.4541612745, -45088.7404034661, 1595.59317849957, 53.6084, 53.6084, 53.6084, 154063.065938641, -360.258434066499, -1930.05039968681, 660.320055030743, 188.955042456576, -47494.1945647406, 0, ]
  - [600, -47509.5096134443, 2410.58848610371, -45098.9211273406, 1598.99889447852, 53.6084, 53.6084, 53.6084, 154063.065938641, -1976.06626796633, -1559.03355818002, -2324.65461934078, -2044.51062637816, -47509.5096134443, 0, ]
  - [700, -47488.3993247393, 2385.88617927369, -45102.5131454657, 1582.61328509725, 53.6084, 53.6084, 53.6084, 154063.065938641, 588.79548367238, 1335.75076318831, 1415.75230642743, -985.1166185986, -47488.3993247393, 0, ]
  - [800, -47505.2291785326, 2407.70251638183, -45097.5266621508, 1597.08456425526, 53.6084, 53.6084, 53.6084, 154063.065938641, -1107.92145458135, -1543.04106582018, -862.920741231722, -917.802556692138, -47505.2291785326, 0, ]
  - [900, -47484.6337460776, 2418.86775568226, -45065.7659903954, 1604.49072478448, 53.6084, 53.6084, 53.6084, 154063.065938641, 764.760595939922, 475.421330118955, 920.745014399238, 898.115443301575, -47484.6337460776, 0, ]
  - [1000, -47478.7715143726, 2399.13251835573, -45079.6389960169, 1591.39988707024, 53.6084, 53.6084, 53.6084, 154063.065938641, 1019.68954047558, 320.448983158382, 2106.6582572418, 631.961381026548, -47478.7715143726, 0, ]
  - [1100, -47464.291629596, 2408.93621432536, -45055.3554152706, 1597.90290453158, 53.6084, 53.6084, 53.6084, 154063.065938641, 2522.79011063559, 1477.8369814924, 4407.98550530134, 1682.54784511302, -47464.291629596, 0, ]
  - [1200, -47498.7837666275, 2448.45388190021, -45050.3298847273, 1624.11588411263, 53.6084, 53.6084, 53.6084, 154063.065938641, -1051.44045147168, -1135.66495238274, -1482.40656750356, -536.249834528724, -47498.7837666275, 0, ]
  - [1300, -47487.2434268753, 2384.12363491078, -45103.1197919645, 1581.44414880376, 53.6084, 53.6084, 53.6084, 154063.065938641, -863.333296686815, -482.654397257131, -1012.99470788618, -1094.35078491713, -47487.2434268753, 0, ]
  - [1400, -47503.4102124784, 2383.1325154235, -45120.2776970549, 1580.78671640765, 53.6084, 53.6084, 53.6084, 154063.065938641, -1968.49361738417, -2646.09747032685, -1842.19070273739, -1417.19267908827, -47503.4102124784, 0, ]
  - [1500, -47489.34171383, 2393.66366839483, -45095.6780454352, 1587.77227286236, 53.6084, 53.6084, 53.6084, 154063.065938641, -318.224278508344, 473.147984733503, -932.816900760065, -495.003919498462, -47489.34171383, 0, ]
  - [1600, -47493.8736902657, 2384.21440875776, -45109.659281508, 1581.50436118834, 53.6084, 53.6084, 53.6084, 154063.065938641, -425.905150556175, -1406.37709670433, 79.5170656502978, 49.1445793854992, -47493.8736902657, 0, ]
  - [1700, -47507.2216263373, 2402.07000576121, -45105.1516205761, 1593.34839016025, 53.6084, 53.6084, 53.6084, 154063.065938641, -1646.13254101747, -2634.46571020329, 210.739360103852, -2514.67127295296, -47507.2216263373, 0, ]
  - [1800, -47465.5797402911, 2394.61850061168, -45070.9612396794, 1588.40563507576, 53.6084, 53.6084, 53.6084, 154063.065938641, 2168.38982324632, 1860.06968877903, 3294.88506666584, 1350.21471429409, -47465.5797402911, 0, ]
  - [1900, -47470.8402619046, 2410.68269312183, -45060.1575687827, 1599.06138416462, 53.6084, 53.6084, 53.6084, 154063.065938641, 2419.12211983681, 2209.79379392505, 2987.97659953459, 2059.59596605078, -47470.8402619046, 0, ]
  - [2000, -47471.8077317357, 2403.55659290932, -45068.2511388263, 1594.33447767377, 53.6084, 53.6084, 53.6084, 154063.065938641, 1880.3251666163, 2210.33143595229, 1931.80873601629, 1498.83532788031, -47471.8077317357, 0, ]
  - [2100, -47502.3461543316, 2396.40606516763, -45105.9400891639, 1589.59136783987, 53.6084, 53.6084, 53.6084, 154063.065938641, -1084.35187363829, -1476.05877083649, -725.04151225834, -1051.95533782005, -47502.3461543316, 0, ]
  - [2200, -47480.1486160364, 2435.13540459901, -45045.0132114374, 1615.28143119646, 53.6084, 53.6084, 53.6084, 154063.065938641, 1690.41827630165, 2358.38377203412, 2371.23184092638, 341.639215944449, -47480.1486160364, 0, ]
  - [2300, -47477.7361697177, 2405.82138203321, -45071.9147876845, 1595.83676449136, 53.6084, 53.6084, 53.6084, 154063.065938641, 1150.9508443937, 1351.88083053887, 1169.45531746549, 931.516385176739, -47477.7361697177, 0, ]
  - [2400, -47512.3782675718, 2431.37288596956, -45081.0053816022, 1612.78566588287, 53.6084, 53.6084, 53.6084, 154063.065938641, -2003.98457038508, -1260.8083267723, -892.896670249162, -3858.24871413378, -47512.3782675718, 0, ]
  - [2500, -47496.3162294007, 2430.39255719925, -45065.9236722014, 1612.135391218, 53.6084, 53.6084, 53.6084, 154063.065938641, -499.387038733845, 466.828305393546, -1212.51365824644, -752.475763348638, -47496.3162294007, 0, ]
  - [2600, -47503.345739908, 2423.51794144001, -45079.827798468, 1607.57530016042, 53.6084, 53.6084, 53.6084, 154063.065938641, -1061.44269041196, -1406.51030121276, -1299.5484435698, -478.269326453318, -47503.345739908, 0, ]
  - [2700, -47487.5038096061, 2391.82641835824, -45095.6773912478, 1586.55358257394, 53.6084, 53.6084, 53.6084, 154063.065938641, 44.9350479943995, -181.417958549803, -787.099413443447, 1103.32251597645, -47487.5038096061, 0, ]
  - [2800, -47492.9759808849, 2459.08439470054, -45033.8915861844, 1631.16734823165, 53.6084, 53.6084, 53.6084, 154063.065938641, 169.625372553061, 1455.89398923761, -629.162376404522, -317.855495173895, -47492.9759808849, 0, ]
  - [2900, -47486.7529721257, 2408.69074501041, -45078.0622271153, 1597.74007907817, 53.6084, 53.6084, 53.6084, 154063.065938641, 656.567725444693, 1544.78591622732, -86.1172635460105, 511.034523652768, -47486.7529721257, 0, ]
  - [3000, -47495.1644325418, 2384.71898857669, -45110.4454439651, 1581.8390606102, 53.6084, 53.6084, 53.6084, 154063.065938641, -1115.35955459879, -1285.81650673186, -614.362221469548, -1445.89993559496, -47495.1644325418, 0, ]
  - [3100, -47503.7620772885, 2411.92567106953, -45091.836406219, 1599.88588008157, 53.6084, 53.6084, 53.6084, 154063.065938641, -926.929405268616, -531.44886058983, -1134.61956443289, -1114.71979078313, -47503.7620772885, 0, ]
  - [3200, -47469.293522865, 2388.33263490765, -45080.9608879574, 1584.23607549745, 53.6084, 53.6084, 53.6084, 154063.065938641, 2086.62370556149, 457.602066563572, 1985.91994332701, 3816.34910679388, -47469.293522865, 0, ]
  - [3300, -47496.5643448344, 2406.85949881063, -45089.7048460238, 1596.52537127307, 53.6084, 53.6084, 53.6084, 154063.065938641, -648.636081682481, -1072.63726634839, -643.699097088082, -229.571881610969, -47496.5643448344, 0, ]
  - [3400, -47493.6555222808, 2410.4285324336, -45083.2269898472, 1598.89279352302, 53.6084, 53.6084, 53.6084, 154063.065938641, 14.0296735607365, -394.963827986492, -113.766972394921, 550.819821063619, -47493.6555222808, 0, ]
  - [3500, -47492.4304338148, 2417.15272035945, -45075.2777134553, 1603.35310233213, 53.6084, 53.6084, 53.6084, 154063.065938641, -459.883345653481, -400.424920420313, -596.126512280501, -383.098604259629, -47492.4304338148, 0, ]
  - [3600, -47509.2903526611, 2398.0828905874, -45111.2074620737, 1590.70364478299, 53.6084, 53.6084, 53.6084, 154063.065938641, -1776.60618319747, -1315.6110160488, -1653.26736631388, -2360.94016722974, -47509.2903526611, 0, ]
  - [3700, -47494.3847330969, 2382.82128121443, -45111.5634518825, 1580.58026758443, 53.6084, 53.6084, 53.6084, 154063.065938641, -259.116490592567, -149.889326553407, -542.29972498193, -85.1604202423595, -47494.3847330969, 0, ]
  - [3800, -47481.0668967521, 2448.9527275835, -45032.1141691686, 1624.44677995018, 53.6084, 53.6084, 53.6084, 154063.065938641, 1287.27445402205, 981.776110060166, 1633.13980062652, 1246.90745137946, -47481.0668967521, 0, ]
  - [3900, -47484.1284000558, 2429.14246220744, -45054.9859378484, 1611.30617440169, 53.6084, 53.6084, 53.6084, 154063.065938641, 1397.28914791987, 1288.66375854202, 1937.63580805502, 965.56787716257, -47484.1284000558, 0, ]
  - [4000, -47486.9133724212, 2437.32400418914, -45049.589368232, 1616.73317974054, 53.6084, 53.6084, 53.6084, 154063.065938641, 350.981385958883, 578.130443372459, 459.046555048805, 15.7671594553857, -47486.9133724212, 0, ]
  - [4100, -47509.4624698965, 2409.23590681863, -45100.2265630779, 1598.10169746873, 53.6084, 53.6084, 53.6084, 154063.065938641, -1193.94091959436, -1612.13660732117, -1462.32998799046, -507.356163471457, -47509.4624698965, 0, ]
  - [4200, -47483.3422583923, 2394.99445660004, -45088.3478017923, 1588.65501534669, 53.6084, 53.6084, 53.6084, 154063.065938641, 811.200154709033, 1355.13918755369, 710.050581964275, 368.41069460914, -47483.3422583923, 0, ]
  - [4300, -47504.4763930233, 2409.88497348017, -45094.5914195431, 1598.53223834298, 53.6084, 53.6084, 53.6084, 154063.065938641, -1458.76521977561, -2260.44317735123, -1574.80115980261, -541.051322172997, -47504.4763930233, 0, ]
  - [4400, -47488.4659699773, 2429.64686007698, -45058.8191099003, 1611.64075313232, 53.6084, 53.6084, 53.6084, 154063.065938641, 858.06053013514, 1891.12940810932, -950.298292029897, 1633.35047432599, -47488.4659699773, 0, ]
  - [4500, -47480.7929725668, 2388.66279573913, -45092.1301768276, 1584.45507878548, 53.6084, 53.6084, 53.6084, 154063.065938641, -28.7341824464249, 543.807659038624, 140.681198009533, -770.691404387434, -47480.7929725668, 0, ]
  - [4600, -47482.8376280629, 2396.59152378835, -45086.2461042745, 1589.71438681687, 53.6084, 53.6084, 53.6084, 154063.065938641, 308.174333124298, 416.617164982875, 347.93444060721, 159.971393782807, -47482.8376280629, 0, ]
  - [4700, -47484.64691771, 2419.21950742445, -45065.4274102856, 1604.72404982114, 53.6084, 53.6084, 53.6084, 154063.065938641, 780.237705101546, 2000.67017948255, -1438.99856684372, 1779.04150266582, -47484.64691771, 0, ]
  - [4800, -47484.9835830106, 2426.81374411391, -45058.1698388967, 1609.76148202529, 53.6084, 53.6084, 53.6084, 154063.065938641, 863.286796655129, 1339.06329299097, 443.164745760267, 807.632351214162, -47484.9835830106, 0, ]
  - [4900, -47475.8294488692, 2409.2805824706, -45066.5488663986, 1598.13133185823, 53.6084, 53.6084, 53.6084, 154063.065938641, 1650.4244733364, 1857.48611347618, 2276.33688327605, 817.450423256963, -47475.8294488692, 0, ]
  - [5000, -47517.2485918508, 2427.34860424452, -45089.8999876063, 1610.11626707569, 53.6084, 53.6084, 53.6084, 154063.065938641, -2601.49861823005, -3684.39990953767, -3186.43415780765, -933.661787344827, -47517.2485918508, 0, ]
  - [5100, -47507.4790628263, 2404.15451046391, -45103.3245523624, 1594.73109016664, 53.6084, 53.6084, 53.6084, 154063.065938641, -1187.23981322, -672.559005014738, -775.982418632987, -2113.17801601226, -47507.4790628263, 0, ]
  - [5200, -47486.0703375138, 2412.71192351815, -45073.3584139957, 1600.4074194498, 53.6084, 53.6084, 53.6084, 154063.065938641, 25.1510224489763, 550.334835390006, -291.212226808771, -183.669541234309, -47486.0703375138, 0, ]
  - [5300, -47507.0965661267, 2404.68876692814, -45102.4077991986, 1595.08547479123, 53.6084, 53.6084, 53.6084, 154063.065938641, -1553.25682625612, -1670.14491339003, -1765.72754342958, -1223.89802194874, -47507.0965661267, 0, ]
  - [5400, -47499.2025491845, 2418.1078963438, -45081.0946528406, 1603.98669257444, 53.6084, 53.6084, 53.6084, 154063.065938641, -1121.77603213274, -2208.3787227051, -430.960032915146, -725.989340777972, -47499.2025491845, 0, ]
  - [5500, -47507.5810725038, 2443.08961884576, -45064.4914536581, 1620.55764480999, 53.6084, 53.6084, 53.6084, 154063.065938641, -1193.23085087583, -769.224412605637, -2356.46864382491, -453.999496196951, -47507.5810725038, 0, ]
  - [5600, -47494.5471073537, 2421.63199180762, -45072.9151155461, 1606.32430630783, 53.6084, 53.6084, 53.6084, 154063.065938641, -954.361843567067, -768.56181722836, -1834.8378305698, -259.685882903044, -47494.5471073537, 0, ]
  - [5700, -47479.4151380265, 2387.67837934223, -45091.7367586843, 1583.80209270369, 53.6084, 53.6084, 53.6084, 154063.065938641, 881.677586013095, -438.742746320712, 881.106518483607, 2202.66898587639, -47479.4151380265, 0, ]
  - [5800, -47496.9575728159, 2397.03824807795, -45099.9193247379, 1590.01070933285, 53.6084, 53.6084, 53.6084, 154063.065938641, -532.985263810127, -2271.74339782732, 817.887284720016, -145.099678323067, -47496.9575728159, 0, ]
  - [5900, -47486.9630389168, 2434.76404139563, -45052.1989975212, 1615.03509742565, 53.6084, 53.6084, 53.6084, 154063.065938641, -31.0053827830855, -203.067948265379, -284.935848954436, 394.987648870551, -47486.9630389168, 0, ]
  - [6000, -47480.1081590213, 2442.06953757529, -45038.038621446, 1619.88100139567, 53.6084, 53.6084, 53.6084, 154063.065938641, 1144.60746932747, 903.379276338169, 1667.44382679025, 862.999304853988, -47480.1081590213, 0, ]
  - [6100, -47475.358225039, 2428.04825049568, -45047.3099745433, 1610.58035855733, 53.6084, 53.6084, 53.6084, 154063.065938641, 917.799075748408, 1244.65295478441, -1090.56228030331, 2599.30655276414, -47475.358225039, 0, ]
  - [6200, -47487.85499718, 2416.44438687677, -45071.4106103032, 1602.88324840963, 53.6084, 53.6084, 53.6084, 154063.065938641, 114.086425777751, -157.087292496884, 1212.06111730712, -712.714547476987, -47487.85499718, 0, ]
  - [6300, -47491.181321126, 2401.25399435521, -45089.9273267708, 1592.80711098979, 53.6084, 53.6084, 53.6084, 154063.065938641, -83.5344711525076, 835.42145808655, 530.322695568236, -1616.34756711231, -47491.181321126, 0, ]
  - [6400, -47499.3907576037, 2407.82956752599, -45091.5611900778, 1597.16884020705, 53.6084, 53.6084, 53.6084, 154063.065938641, -1350.05959634765, -957.190906955946, -2362.52467117802, -730.463210908985, -47499.3907576037, 0, ]
  - [6500, -47493.8793883747, 2408.08610408001, -45085.7932842947, 1597.33900681518, 53.6084, 53.6084, 53.6084, 154063.065938641, 126.848224191242, 357.968797720133, -861.000274403452, 883.57614925704, -47493.8793883747, 0, ]
  - [6600, -47510.8084713517, 2414.36830467779, -45096.440166674, 1601.50613524405, 53.6084, 53.6084, 53.6084, 154063.065938641, -2646.78063274141, -1453.23098496671, -3929.51572614875, -2557.59518710877, -47510.8084713517, 0, ]
  - [6700, -47511.1961618688, 2420.37283915429, -45090.8233227145, 1605.4890813359, 53.6084, 53.6084, 53.6084, 154063.065938641, -1852.65554563609, -1827.73350431791, -2381.20358305944, -1349.02954953094, -47511.1961618688, 0, ]
  - [6800, -47487.1304383137, 2419.36272432225, -45067.7677139914, 1604.81904888986, 53.6084, 53.6084, 53.6084, 154063.065938641, 394.443404353361, 462.33315174927, 231.279366963148, 489.717694347668, -47487.1304383137, 0, ]
  - [6900, -47486.0718277341, 2416.39655631805, -45069.6752714161, 1602.85152129778, 53.6084, 53.6084, 53.6084, 154063.065938641, 156.951243141441, -959.836208621418, -429.033782752177, 1859.72372079792, -47486.0718277341, 0, ]
  - [7000, -47497.3381798063, 2414.32793329606, -45083.0102465103, 1601.47935597619, 53.6084, 53.6084, 53.6084, 154063.065938641, -1146.28200317878, -1724.40848512095, -279.360115884716, -1435.07740853066, -47497.3381798063, 0, ]
  - [7100, -47494.5721842659, 2407.45178246941, -45087.1204017965, 1596.91824667303, 53.6084, 53.6084, 53.6084, 154063.065938641, -506.2514413732, -783.961854530476, -442.248935929849, -292.543533659276, -47494.5721842659, 0, ]
  - [7200, -47489.8948984573, 2407.085821137, -45082.8090773203, 1596.67549608772, 53.6084, 53.6084, 53.6084, 154063.065938641, 186.503767018721, -1070.05990418042, -42.4551733395591, 1672.02637857614, -47489.8948984573, 0, ]
  - [7300, -47493.2911622722, 2439.06275448653, -45054.2284077857, 1617.88653288204, 53.6084, 53.6084, 53.6084, 154063.065938641, 44.4307868234818, -212.89483295783, 503.583598580079, -157.396405151806, -47493.2911622722, 0, ]
  - [7400, -47480.86907194, 2425.55350496784, -45055.3155669721, 1608.92553635768, 53.6084, 53.6084, 53.6084, 154063.065938641, 1141.14489789707, 1048.09402888213, 1139.99825032718, 1235.34241448192, -47480.86907194, 0, ]
  - [7500, -47488.0636349034, 2429.68414289902, -45058.3794920044, 1611.66548368736, 53.6084, 53.6084, 53.6084, 154063.065938641, 421.249012169013, 886.596459323692, -18.6265931255246, 395.777170308873, -47488.0636349034, 0, ]
  - [7600, -47502.4295468304, 2422.1324257909, -45080.2971210395, 1606.65625570137, 53.6084, 53.6084, 53.6084, 154063.065938641, -576.290848250315, -710.811641363652, -690.790426456058, -327.270476931232, -47502.4295468304, 0, ]
  - [7700, -47477.0258886726, 2416.27438225881, -45060.7515064138, 1602.77048042881, 53.6084, 53.6084, 53.6084, 154063.065938641, 1490.23990817022, 912.467483721995, 1363.3809161024, 2194.87132468625, -47477.0258886726, 0, ]
  - [7800, -47489.4334403395, 2399.26189685157, -45090.1715434879, 1591.48570680804, 53.6084, 53.6084, 53.6084, 154063.065938641, -198.106814680073, -233.510709774054, 99.375538871537, -460.185273137696, -47489.4334403395, 0, ]
  - [7900, -47501.2645755991, 2370.34353640544, -45130.9210391937, 1572.30349190489, 53.6084, 53.6084, 53.6084, 154063.065938641, -1554.05563602095, -3383.17549644709, -1018.08368913292, -260.907722482847, -47501.2645755991, 0, ]
  - [8000, -47521.1925534444, 2394.48395094464, -45126.7086024997, 1588.31638518093, 53.6084, 53.6084, 53.6084, 154063.065938641, -2460.49088306345, -3464.50191749826, -2307.91172779268, -1609.05900389941, -47521.1925534444, 0, ]
  - [8100, -47493.6309464682, 2427.01044509693, -45066.6205013713, 1609.89195832027, 53.6084, 53.6084, 53.6084, 154063.065938641, -165.266424803857, 692.016158683846, -804.105821376481, -383.709611718942, -47493.6309464682, 0, ]
  - [8200, -47479.3781687536, 2418.28715806083, -45061.0910106928, 1604.1056010024, 53.6084, 53.6084, 53.6084, 154063.065938641, 1110.2178867697, 1925.7019066448, 1121.31166883683, 283.640084827464, -47479.3781687536, 0, ]
  - [8300, -47486.967710747, 2422.98250327378, -45063.9852074732, 1607.22013168567, 53.6084, 53.6084, 53.6084, 154063.065938641, 233.050243141566, 344.669248007683, 949.044156363487, -594.562674946471, -47486.967710747, 0, ]
  - [8400, -47514.9219659409, 2418.94161576702, -45095.9803501739, 1604.53971788079, 53.6084, 53.6084, 53.6084, 154063.065938641, -2313.15290944913, -2873.8570117328, -2472.04568390541, -1593.55603270917, -47514.9219659409, 0, ]
  - [8500, -47470.9171264922, 2416.2475558683, -45054.6695706239, 1602.75268586577, 53.6084, 53.6084, 53.6084, 154063.065938641, 1928.98947703387, 769.52504325992, 2428.56949052588, 2588.8738973158, -47470.9171264922, 0, ]
  - [8600, -47492.9615588024, 2426.02481285068, -45066.9367459517, 1609.23816573758, 53.6084, 53.6084, 53.6084, 154063.065938641, -475.167706704162, -1331.38668927579, -201.197381653094, 107.080950816408, -47492.9615588024, 0, ]
  - [8700, -47510.223487267, 2393.39133432929, -45116.8321529377, 1587.59162740078, 53.6084, 53.6084, 53.6084, 154063.065938641, -1899.10645248482, -2047.01503005049, -2682.45628303844, -967.848044365536, -47510.223487267, 0, ]
  - [8800, -47514.4363894868, 2409.51337668147, -45104.9230128054, 1598.28574962301, 53.6084, 53.6084, 53.6084, 154063.065938641, -2774.6274270742, -2943.90892425672, -3409.33391662086, -1970.63944034502, -47514.4363894868, 0, ]
  - [8900, -47495.8933777577, 2422.48355708851, -45073.4098206692, 1606.88916918284, 53.6084, 53.6084, 53.6084, 154063.065938641, -258.512896415292, -1897.40630733028, 705.241304918945, 416.626313165467, -47495.8933777577, 0, ]
  - [9000, -47502.353039164, 2428.33730544296, -45074.015733721, 1610.77209536509, 53.6084, 53.6084, 53.6084, 154063.065938641, -1383.66411957431, -1116.42901368438, -2029.22957297341, -1005.33377206515, -47502.353039164, 0, ]
  - [9100, -47490.8945775439, 2411.48014333198, -45079.4144342119, 1599.59035126613, 53.6084, 53.6084, 53.6084, 154063.065938641, 172.956736396316, 1404.29648918242, -485.278082194077, -400.148197799398, -47490.8945775439, 0, ]
  - [9200, -47515.254705405, 2429.28893925432, -45085.9657661506, 1611.40333600242, 53.6084, 53.6084, 53.6084, 154063.065938641, -2228.07672064472, -1632.86584185428, -2557.43768863297, -2493.92663144689, -47515.254705405, 0, ]
  - [9300, -47500.0739525158, 2406.92301321654, -45093.1509392992, 1596.56750184219, 53.6084, 53.6084, 53.6084, 154063.065938641, -868.003278479066, -779.511646354166, 626.780655072761, -2451.2788441558, -47500.0739525158, 0, ]
  - [9400, -47492.6251044679, 2412.45769266924, -45080.1674117987, 1600.23878226901, 53.6084, 53.6084, 53.6084, 154063.065938641, -57.7135520982798, 472.31942470668, -388.648619572954, -256.81146142857, -47492.6251044679, 0, ]
  - [9500, -47492.7240977819, 2415.6476391345, -45077.0764586474, 1602.35474727125, 53.6084, 53.6084, 53.6084, 154063.065938641, -51.8409342796019, 1203.84958030283, -746.583261402216, -612.789121739426, -47492.7240977819, 0, ]
  - [9600, -47483.1552226776, 2395.37200950549, -45087.7832131721, 1588.90545488952, 53.6084, 53.6084, 53.6084, 154063.065938641, 856.762901896218, -62.6340877848683, 587.482309192821, 2045.4404842807, -47483.1552226776, 0, ]
  - [9700, -47497.1575698683, 2421.85121118677, -45075.3063586815, 1606.4697195739, 53.6084, 53.6084, 53.6084, 154063.065938641, -1279.58888732716, -1694.63411732611, -2268.3694434938, 124.236898838421, -47497.1575698683, 0, ]
  - [9800, -47498.6202995818, 2419.26723416088, -45079.353065421, 1604.75570806527, 53.6084, 53.6084, 53.6084, 154063.065938641, -730.630487401686, -230.34237288384, -1009.38626900387, -952.162820317346, -47498.6202995818, 0, ]
  - [9900, -47486.1155148005, 2385.97159407732, -45100.1439207232, 1582.66994270487, 53.6084, 53.6084, 53.6084, 154063.065938641, 713.214052235512, 406.265378589476, -744.333275089398, 2477.71005320646, -47486.1155148005, 0, ]
  - [10000, -47512.343426387, 2413.18600560728, -45099.1574207797, 1600.72188902467, 53.6084, 53.6084, 53.6084, 154063.065938641, -1717.72016812115, -3057.20160023338, -1538.27972696078, -557.679177169298, -47512.343426387, 0, ]
  - [10100, -47490.9573098118, 2409.64104976721, -45081.3162600446, 1598.37043812299, 53.6084, 53.6084, 53.6084, 154063.065938641, -187.240602684539, 471.134934303799, -1024.78040193548, -8.07634042194161, -47490.9573098118, 0, ]
  - [10200, -47494.607197358, 2397.85573568979, -45096.7514616682, 1590.55296770466, 53.6084, 53.6084, 53.6084, 154063.065938641, -900.728959502354, -1541.81293978896, -846.83270245121, -313.54123626689, -47494.607197358, 0, ]
  - [10300, -47496.7646508725, 2424.43660922633, -45072.3280416462, 1608.18467367365, 53.6084, 53.6084, 53.6084, 154063.065938641, -1178.93147506639, -1068.59352564927, -2060.08370509153, -408.117194458344, -47496.7646508725, 0, ]
  - [10400, -47474.9852468625, 2403.77017692653, -45071.215069936, 1594.47615287439, 53.6084, 53.6084, 53.6084, 154063.065938641, 1430.51049552879, 616.954415742993, 1548.2238403099, 2126.3532305335, -47474.9852468625, 0, ]
  - [10500, -47474.3685886305, 2436.16168739501, -45038.2069012355, 1615.96218822557, 53.6084, 53.6084, 53.6084, 154063.065938641, 1932.66857150786, 2214.48255079112, 1732.83214640383, 1850.69101732862, -47474.3685886305, 0, ]
  - [10600, -47483.9204119002, 2424.67875009938, -45059.2416618008, 1608.34529129484, 53.6084, 53.6084, 53.6084, 154063.065938641, 571.670176099209, 810.670268401273, 1501.3605683376, -597.020308441238, -47483.9204119002, 0, ]
  - [10700, -47499.0974892027, 2427.71054761918, -45071.3869415835, 1610.35635245704, 53.6084, 53.6084, 53.6084, 154063.065938641, -732.650825121022, -401.67667598114, 715.054731889679, -2511.3305312716, -47499.0974892027, 0, ]
  - [10800, -47514.8631620919, 2407.24248695874, -45107.6206751331, 1596.77941613761, 53.6084, 53.6084, 53.6084, 154063.065938641, -2433.03231706478, -1496.36497876905, -3167.89315056489, -2634.8388218604, -47514.8631620919, 0, ]
  - [10900, -47501.7831969905, 2401.92253870464, -45099.8606582858, 1593.25057186327, 53.6084, 53.6084, 53.6084, 154063.065938641, -227.708761210801, 131.787210710487, -649.706468650869, -165.207025692025, -47501.7831969905, 0, ]
  - [11000, -47496.8694587682, 2409.23014939386, -45087.6393093743, 1598.09787843621, 53.6084, 53.6084, 53.6084, 154063.065938641, -731.05814244003, -690.020658812716, -331.421240488684, -1171.73252801868, -47496.8694587682, 0, ]
  - [11100, -47459.8489725179, 2441.71539295727, -45018.1335795606, 1619.64608910932, 53.6084, 53.6084, 53.6084, 154063.065938641, 2620.23559513688, 2849.4326490371, 2455.2985992921, 2555.97553708144, -47459.8489725179, 0, ]
  - [11200, -47477.4642166395, 2435.85218730371, -45041.6120293358, 1615.75688968263, 53.6084, 53.6084, 53.6084, 154063.065938641, 1696.30953628581, 2359.90447634779, 845.325621744824, 1883.6985107648, -47477.4642166395, 0, ]
  - [11300, -47491.7165663335, 2421.81858842773, -45069.8979779057, 1606.44808014604, 53.6084, 53.6084, 53.6084, 154063.065938641, 167.823836747415, 759.991386117645, -672.241733256323, 415.721857380919, -47491.7165663335, 0, ]
  - [11400, -47497.2865935246, 2436.12751833366, -45061.159075191, 1615.93952309976, 53.6084, 53.6084, 53.6084, 154063.065938641, -379.376912591014, 251.764664224323, -939.258118991207, -450.637283006153, -47497.2865935246, 0, ]
  - [11500, -47494.2316307677, 2388.72007780511, -45105.5115529626, 1584.4930752999, 53.6084, 53.6084, 53.6084, 154063.065938641, -412.587998189676, 353.063380929988, -807.354699127889, -783.472676371125, -47494.2316307677, 0, ]
  - [11600, -47515.1313853906, 2419.63032028658, -45095.5010651041, 1604.99655145971, 53.6084, 53.6084, 53.6084, 154063.065938641, -1870.59613540162, -1692.26958914898, -2299.75733328987, -1619.76148376602, -47515.1313853906, 0, ]
  - [11700, -47516.1998846495, 2425.17967343533, -45091.0202112142, 1608.67756528727, 53.6084, 53.6084, 53.6084, 154063.065938641, -2329.4954415522, -1360.77497549516, -1290.45022215786, -4337.2611270036, -47516.1998846495, 0, ]
  - [11800, -47488.3319247855, 2407.69649574713, -45080.6354290384, 1597.08057062952, 53.6084, 53.6084, 53.6084, 154063.065938641, 633.90740114541, 728.770487064961, 289.371248122205, 883.580468249062, -47488.3319247855, 0, ]
  - [11900, -47469.6332146181, 2407.39226690296, -45062.2409477152, 1596.87876862627, 53.6084, 53.6084, 53.6084, 154063.065938641, 1564.00980395851, 2592.81782975454, 463.16526528596, 1636.04631683503, -47469.6332146181, 0, ]
  - [12000, -47478.687364238, 2432.27174618775, -45046.4156180503, 1613.3819005797, 53.6084, 53.6084, 53.6084, 154063.065938641, 1284.79680674092, 1922.27477549971, 1049.48622749676, 882.629417226282, -47478.687364238, 0, ]
  - [12100, -47480.0674737797, 2431.7703078425, -45048.2971659372, 1613.04928496972, 53.6084, 53.6084, 53.6084, 154063.065938641, 1297.13989584976, 1292.75268793132, 15.2991489943489, 2583.36785062361, -47480.0674737797, 0, ]
  - [12200, -47484.5714703057, 2398.43315891664, -45086.1383113891, 1590.93598583766, 53.6084, 53.6084, 53.6084, 154063.065938641, 427.265825411971, -477.176400625677, 686.15372756634, 1072.82014929525, -47484.5714703057, 0, ]
  - [12300, -47475.4360424897, 2423.471238559, -45051.9648039307, 1607.54432106319, 53.6084, 53.6084, 53.6084, 154063.065938641, 1317.93621616629, 673.529509272398, 1391.90149043534, 1888.37764879114, -47475.4360424897, 0, ]
  - [12400, -47502.6186640893, 2398.4343667171, -45104.1842973722, 1590.93678699954, 53.6084, 53.6084, 53.6084, 154063.065938641, -2021.86445395637, -2654.08403440405, -639.3838856651, -2772.12544179996, -47502.6186640893, 0, ]
  - [12500, -47500.9332030078, 2397.85462816307, -45103.0785748448, 1590.55223305667, 53.6084, 53.6084, 53.6084, 154063.065938641, -1137.29010750307, -844.465880734988, -1267.4441262927, -1299.96031548153, -47500.9332030078, 0, ]
  - [12600, -47490.4471477028, 2408.2469601207, -45082.2001875821, 1597.44570633387, 53.6084, 53.6084, 53.6084, 154063.065938641, -38.0579386184523, -825.819394242383, 1665.87305907562, -954.227480688589, -47490.4471477028, 0, ]
  - [12700, -47512.635156862, 2392.54317618743, -45120.0919806746, 1587.02902455962, 53.6084, 53.6084, 53.6084, 154063.065938641, -2174.16161096166, -1200.41356343988, -2285.83924177797, -3036.23202766711, -47512.635156862, 0, ]
  - [12800, -47478.3001863849, 2372.24198234274, -45106.0582040422, 1573.5627748445, 53.6084, 53.6084, 53.6084, 154063.065938641, 514.434364152364, -17.5909022651744, 919.87571800973, 641.018276712538, -47478.3001863849, 0, ]
  - [12900, -47515.4385942156, 2426.91313353783, -45088.5254606778, 1609.82740932059, 53.6084, 53.6084, 53.6084, 154063.065938641, -2204.74118952308, -1284.46096068539, -1773.04897274285, -3556.71363514099, -47515.4385942156, 0, ]
  - [13000, -47493.940204006, 2407.70988039755, -45086.2303236085, 1597.08944897658, 53.6084, 53.6084, 53.6084, 154063.065938641, -435.411907123522, -1253.77007322872, 250.442386325902, -302.908034467754, -47493.940204006, 0, ]
  - [13100, -47495.1387458672, 2394.09341867342, -45101.0453271938, 1588.05733612567, 53.6084, 53.6084, 53.6084, 154063.065938641, -1252.22336824527, -1594.21222032366, -1723.70107748576, -438.75680692641, -47495.1387458672, 0, ]
  - [13200, -47500.5531863824, 2410.35070309493, -45090.2024832875, 1598.84116752912, 53.6084, 53.6084, 53.6084, 154063.065938641, -638.609076040399, -761.956147335085, 531.741011836188, -1685.6120926223, -47500.5531863824, 0, ]
  - [13300, -47513.2120570097, 2375.64847403338, -45137.5635829763, 1575.82237928499, 53.6084, 53.6084, 53.6084, 154063.065938641, -2297.85655999667, -2412.90424109401, -2321.96022222729, -2158.70521666872, -47513.2120570097, 0, ]
  - [13400, -47505.5375507298, 2394.19330752892, -45111.3442432009, 1588.12359470546, 53.6084, 53.6084, 53.6084, 154063.065938641, -1051.01504374614, -956.261332936791, -680.512349822465, -1516.27144847916, -47505.5375507298, 0, ]
  - [13500, -47486.9561979237, 2410.06487655984, -45076.8913213639, 1598.65157220156, 53.6084, 53.6084, 53.6084, 154063.065938641, 343.744394952141, 47.495309046061, -281.685760666587, 1265.42363647695, -47486.9561979237, 0, ]
  - [13600, -47508.2448911482, 2411.39033098495, -45096.8545601632, 1599.53077666664, 53.6084, 53.6084, 53.6084, 154063.065938641, -1779.71747953996, -1408.33713951505, -1159.72648522292, -2771.08881388191, -47508.2448911482, 0, ]
  - [13700, -47513.5747955934, 2427.34395430825, -45086.2308412852, 1610.11318266581, 53.6084, 53.6084, 53.6084, 154063.065938641, -1536.78521255468, -1963.41037121435, -1014.63313439916, -1632.31213205055, -47513.5747955934, 0, ]
  - [13800, -47498.2913202313, 2414.07539402912, -45084.2159262022, 1601.31184086071, 53.6084, 53.6084, 53.6084, 154063.065938641, -1523.19497525914, -442.893175352894, -853.273413350865, -3273.41833707367, -47498.2913202313, 0, ]
  - [13900, -47498.6976913178, 2423.01648846243, -45075.6812028554, 1607.24267484448, 53.6084, 53.6084, 53.6084, 154063.065938641, -871.661971513451, -128.451856293711, -2083.20388334659, -403.330174900063, -47498.6976913178, 0, ]
  - [14000, -47473.5458144887, 2409.41407435001, -45064.1317401387, 1598.21988009814, 53.6084, 53.6084, 53.6084, 154063.065938641, 2075.24408053472, 1356.23802038741, 2237.15697005222, 2632.33725116454, -47473.5458144887, 0, ]
  - [14100, -47470.8594646816, 2406.01126343449, -45064.8482012471, 1595.96271720062, 53.6084, 53.6084, 53.6084, 154063.065938641, 1106.63411418752, -100.705600506491, 341.964596980911, 3078.64334608814, -47470.8594646816, 0, ]
  - [14200, -47482.4607011175, 2412.78397040164, -45069.6767307159, 1600.45520980793, 53.6084, 53.6084, 53.6084, 154063.065938641, 1444.19714589802, 221.226120393137, 2278.30205228939, 1833.06326501154, -47482.4607011175, 0, ]
  - [14300, -47484.8072620204, 2425.67624676851, -45059.1310152519, 1609.00695382263, 53.6084, 53.6084, 53.6084, 154063.065938641, 630.443022987301, 603.625491157755, -669.6574748629, 1957.36105266705, -47484.8072620204, 0, ]
  - [14400, -47484.0344017674, 2432.74103681775, -45051.2933649497, 1613.69319186931, 53.6084, 53.6084, 53.6084, 154063.065938641, 959.203770323332, 1096.5076312789, 624.138674377964, 1156.96500531314, -47484.0344017674, 0, ]
  - [14500, -47459.7524472131, 2416.50092981094, -45043.2515174021, 1602.92075464089, 53.6084, 53.6084, 53.6084, 154063.065938641, 2868.13550194388, 4016.95256457173, 1770.85017481792, 2816.60376644201, -47459.7524472131, 0, ]
  - [14600, -47500.2188074666, 2420.79100011731, -45079.4278073493, 1605.76645713912, 53.6084, 53.6084, 53.6084, 154063.065938641, -744.750504080579, -1444.71660801082, -776.953064990241, -12.5818392406793, -47500.2188074666, 0, ]
  - [14700, -47514.1046845808, 2425.67445177588, -45088.4302328049, 1609.00576316266, 53.6084, 53.6084, 53.6084, 154063.065938641, -1867.15853611955, -1857.76605863971, -831.825130718361, -2911.88441900057, -47514.1046845808, 0, ]
  - [14800, -47464.6043341287, 2452.01606899007, -45012.5882651386, 1626.4787648994, 53.6084, 53.6084, 53.6084, 154063.065938641, 2255.6377999113, 984.713022248472, 3775.01959841987, 2007.18077906556, -47464.6043341287, 0, ]
  - [14900, -47485.3440117348, 2422.1402198106, -45063.2037919242, 1606.66142565425, 53.6084, 53.6084, 53.6084, 154063.065938641, -8.73373755682618, 523.150336794342, -252.790505378121, -296.561044086697, -47485.3440117348, 0, ]
  - [15000, -47492.7691006228, 2414.6200420855, -45078.1490585373, 1601.67311846783, 53.6084, 53.6084, 53.6084, 154063.065938641, -371.959495850467, -309.299758776605, -118.963754959907, -687.614973814886, -47492.7691006228, 0, ]
  - [15100, -47510.9286981303, 2351.65520323831, -45159.273494892, 1559.90708984533, 53.6084, 53.6084, 53.6084, 154063.065938641, -1826.37817727857, -2063.89966551324, -1655.3496753514, -1759.88519097107, -47510.9286981303, 0, ]
  - [15200, -47507.9627742501, 2391.85668088536, -45116.1060933648, 1586.57365640557, 53.6084, 53.6084, 53.6084, 154063.065938641, -2020.42527832229, -1967.61245555549, -1540.45161781425, -2553.21176159712, -47507.9627742501, 0, ]
  - [15300, -47470.2123198393, 2373.98479315679, -45096.2275266825, 1574.71882142027, 53.6084, 53.6084, 53.6084, 154063.065938641, 1898.42311066464, 1467.46023854166, 2557.0425175969, 1670.76657585538, -47470.2123198393, 0, ]
  - [15400, -47505.160630753, 2398.72387856762, -45106.4367521854, 1591.12882688174, 53.6084, 53.6084, 53.6084, 154063.065938641, -1495.15558788459, -543.185586504517, -2608.54875926245, -1333.7324178868, -47505.160630753, 0, ]
  - [15500, -47470.1108115938, 2410.3460619588, -45059.764749635, 1598.83808895657, 53.6084, 53.6084, 53.6084, 154063.065938641, 2117.4941884417, 2336.41327422498, 1639.78090060257, 2376.28839049755, -47470.1108115938, 0, ]
  - [15600, -47478.0346800734, 2445.36312891682, -45032.6715511566, 1622.06571643282, 53.6084, 53.6084, 53.6084, 154063.065938641, 1866.46570871664, 1864.80504142971, 1393.40219015939, 2341.18989456083, -47478.0346800734, 0, ]
  - [15700, -47480.0928281423, 2398.91465144173, -45081.1781767005, 1591.25537092547, 53.6084, 53.6084, 53.6084, 154063.065938641, 640.471040529849, 14.0937942607229, 1081.29635768084, 826.022969647981, -47480.0928281423, 0, ]
  - [15800, -47501.7370341263, 2407.06959007565, -45094.6674440506, 1596.66472965068, 53.6084, 53.6084, 53.6084, 154063.065938641, -847.335302023655, -1053.88861027262, 46.217207315251, -1534.33450311359, -47501.7370341263, 0, ]
  - [15900, -47488.7694112495, 2382.30832827468, -45106.4610829748, 1580.24001407858, 53.6084, 53.6084, 53.6084, 154063.065938641, -314.947162204066, -1575.27478533249, 971.001067686368, -340.56776896608, -47488.7694112495, 0, ]
  - [16000, -47494.8882984919, 2430.04370278692, -45064.844595705, 1611.903988047, 53.6084, 53.6084, 53.6084, 154063.065938641, -214.715741821622, -335.506124309665, -316.595770509706, 7.95466935451147, -47494.8882984919, 0, ]
  - [16100, -47481.1187117066, 2420.60507860347, -45060.5136331031, 1605.64313111446, 53.6084, 53.6084, 53.6084, 154063.065938641, 1334.15303736455, 2586.58096743984, 358.540957669059, 1057.33718698476, -47481.1187117066, 0, ]
  - [16200, -47506.0502143102, 2377.02204230371, -45129.0281720065, 1576.73349877237, 53.6084, 53.6084, 53.6084, 154063.065938641, -2126.55546336191, -1351.82056217097, -2726.63223656253, -2301.21359135222, -47506.0502143102, 0, ]
  - [16300, -47505.0758639615, 2396.46479618868, -45108.6110677728, 1589.63032547958, 53.6084, 53.6084, 53.6084, 154063.065938641, -1676.86817609082, -1126.09141730469, -1436.88480389454, -2467.62830707324, -47505.0758639615, 0, ]
  - [16400, -47485.0090307167, 2413.28579786535, -45071.7232328514, 1600.78808352915, 53.6084, 53.6084, 53.6084, 154063.065938641, 376.062151566748, 494.368528509753, -491.091840526186, 1124.90976671669, -47485.0090307167, 0, ]
  - [16500, -47471.4173148736, 2410.77370433032, -45060.6436105432, 1599.12175399655, 53.6084, 53.6084, 53.6084, 154063.065938641, 1751.669683498, 2878.25155826115, 1766.17547446741, 610.582017765417, -47471.4173148736, 0, ]
  - [16600, -47484.1309678513, 2402.28116425101, -45081.8498036002, 1593.48845645265, 53.6084, 53.6084, 53.6084, 154063.065938641, 851.196177059152, 2111.302349764, 302.336181781568, 139.949999631893, -47484.1309678513, 0, ]
  - [16700, -47466.9539206088, 2415.9411652781, -45051.0127553307, 1602.54944992657, 53.6084, 53.6084, 53.6084, 154063.065938641, 1956.06236954569, 2530.56835067759, 1769.91412632601, 1567.70463163346, -47466.9539206088, 0, ]
  - [16800, -47485.2571976461, 2421.21835924303, -45064.0388384031, 1606.04993429564, 53.6084, 53.6084, 53.6084, 154063.065938641, 618.172085815495, -541.967013839444, 576.024594411427, 1820.45867687451, -47485.2571976461, 0, ]
  - [16900, -47488.7583903195, 2473.83376992038, -45014.9246203991, 1640.95094871208, 53.6084, 53.6084, 53.6084, 154063.065938641, -156.584880751527, 270.825413737339, 552.67563177744, -1293.25568776936, -47488.7583903195, 0, ]
  - [17000, -47494.8969793098, 2427.89007819287, -45067.0069011169, 1610.47543922382, 53.6084, 53.6084, 53.6084, 154063.065938641, 176.994659708624, -605.340996338071, 1855.43817002381, -719.113194559864, -47494.8969793098, 0, ]
  - [17100, -47485.4735798461, 2420.98703483348, -45064.4865450126, 1605.89649148395, 53.6084, 53.6084, 53.6084, 154063.065938641, 361.48705562155, -822.454223458186, 1417.66177574625, 489.25361457658, -47485.4735798461, 0, ]
  - [17200, -47476.2362311642, 2395.62153968841, -45080.6146914758, 1589.07097401024, 53.6084, 53.6084, 53.6084, 154063.065938641, 1094.00199569177, -43.5829479543019, 2250.43190757786, 1075.15702745174, -47476.2362311642, 0, ]
  - [17300, -47495.9894382569, 2419.04870795541, -45076.9407303015, 1604.61075459727, 53.6084, 53.6084, 53.6084, 154063.065938641, -259.396853147786, -1510.09705771295, -639.66403980472, 1371.57053807431, -47495.9894382569, 0, ]
  - [17400, -47511.708881879, 2426.06776349174, -45085.6411183873, 1609.2666558876, 53.6084, 53.6084, 53.6084, 154063.065938641, -2248.2440233051, -2538.8461944132, -1982.09265395244, -2223.79322154966, -47511.708881879, 0, ]
  - [17500, -47506.7200950774, 2411.44985228556, -45095.2702427918, 1599.57025851699, 53.6084, 53.6084, 53.6084, 154063.065938641, -1637.00525119634, -1653.59082761486, -1959.02066399914, -1298.40426197502, -47506.7200950774, 0, ]
  - [17600, -47498.5734706648, 2423.99906712989, -45074.5744035349, 1607.89444191798, 53.6084, 53.6084, 53.6084, 154063.065938641, -644.467336251668, -136.260553838551, -1692.54317374058, -104.598281175872, -47498.5734706648, 0, ]
  - [17700, -47483.8573350828, 2389.33272297243, -45094.5246121104, 1584.8994569577, 53.6084, 53.6084, 53.6084, 154063.065938641, -315.514502560845, 1260.56883875301, -2254.27632811444, 47.1639816789052, -47483.8573350828, 0, ]
  - [17800, -47504.5795524128, 2410.03944651758, -45094.5401058952, 1598.6347038685, 53.6084, 53.6084, 53.6084, 154063.065938641, -1660.75386991179, -1111.70046180434, -2863.36557504655, -1007.1955728845, -47504.5795524128, 0, ]
  - [17900, -47485.4319777754, 2414.863044923, -45070.5689328524, 1601.83430784991, 53.6084, 53.6084, 53.6084, 154063.065938641, 645.495044767834, 815.842903401073, 726.275956761499, 394.366274140931, -47485.4319777754, 0, ]
  - [18000, -47487.9332950603, 2394.65206481609, -45093.2812302442, 1588.42789898602, 53.6084, 53.6084, 53.6084, 154063.065938641, 555.532189602564, -385.717771108663, 656.235515918529, 1396.07882399782, -47487.9332950603, 0, ]
  - [18100, -47511.719745434, 2407.39153132146, -45104.3282141125, 1596.87828069811, 53.6084, 53.6084, 53.6084, 154063.065938641, -1667.49417514028, -2727.59239778475, -716.031514516528, -1558.85861311955, -47511.719745434, 0, ]
  - [18200, -47504.4898993676, 2392.25191058441, -45112.2379887832, 1586.83582137296, 53.6084, 53.6084, 53.6084, 154063.065938641, -1399.46852457784, -839.339915042338, -2590.93544502209, -768.130213669073, -47504.4898993676, 0, ]
  - [18300, -47500.2687539205, 2419.25141295418, -45081.0173409663, 1604.74521349427, 53.6084, 53.6084, 53.6084, 154063.065938641, -710.513991102064, -1152.95281472721, -651.617578750853, -326.971579828131, -47500.2687539205, 0, ]
  - [18400, -47466.7000307223, 2422.70712170889, -45043.9929090134, 1607.03746474755, 53.6084, 53.6084, 53.6084, 154063.065938641, 1575.44833282204, 1911.65541980094, 1678.34260494309, 1136.34697372208, -47466.7000307223, 0, ]
  - [18500, -47472.3089441073, 2411.48698050687, -45060.8219636004, 1599.5948865218, 53.6084, 53.6084, 53.6084, 154063.065938641, 1130.8489008497, 856.018300006456, 1900.05665834458, 636.471744198066, -47472.3089441073, 0, ]
  - [18600, -47475.4428350953, 2393.97447381949, -45081.4683612758, 1587.978437263, 53.6084, 53.6084, 53.6084, 154063.065938641, 1820.17562648827, 850.104619874488, 2966.47535598303, 1643.94690360729, -47475.4428350953, 0, ]
  - [18700, -47492.3697544129, 2436.74635739266, -45055.6233970202, 1616.35001330865, 53.6084, 53.6084, 53.6084, 154063.065938641, -415.594191618882, -539.370408309748, -223.89930940207, -483.512857144829, -47492.3697544129, 0, ]
  - [18800, -47492.5638461162, 2423.42383260478, -45069.1400135114, 1607.51287560129, 53.6084, 53.6084, 53.6084, 154063.065938641, 205.919892801437, -373.494927099316, 242.213015484841, 749.04159001878, -47492.5638461162, 0, ]
  - [18900, -47506.697933207, 2401.13649091191, -45105.561442295, 1592.729168248, 53.6084, 53.6084, 53.6084, 154063.065938641, -1389.168252365, -2630.96301763376, -78.3999676788337, -1458.14177178241, -47506.697933207, 0, ]
  - [19000, -47512.3626979414, 2404.78515970358, -45107.5775382378, 1595.14941434053, 53.6084, 53.6084, 53.6084, 154063.065938641, -2274.34239712935, -2445.67383239582, -1094.74295747463, -3282.61040151761, -47512.3626979414, 0, ]
  - [19100, -47500.003756839, 2421.34342424975, -45078.6603325892, 1606.1328927967, 53.6084, 53.6084, 53.6084, 154063.065938641, -345.615745578626, -691.135266505045, -79.7264326566464, -265.985537574195, -47500.003756839, 0, ]
  - [19200, -47495.0010135347, 2382.55405986687, -45112.4469536678, 1580.40301350652, 53.6084, 53.6084, 53.6084, 154063.065938641, -322.063988920616, -1222.9238607968, 1750.35523952048, -1493.62334548553, -47495.0010135347, 0, ]
  - [19300, -47525.6935134764, 2376.71160077897, -45148.9819126974, 1576.52757575493, 53.6084, 53.6084, 53.6084, 154063.065938641, -3414.20707272829, -3828.98872308615, -3896.09365581102, -2517.53883928772, -47525.6935134764, 0, ]
  - [19400, -47516.3520219114, 2398.99653246426, -45117.3554894471, 1591.30968449465, 53.6084, 53.6084, 53.6084, 154063.065938641, -2113.26746306901, -1211.18191087417, -1863.17199289087, -3265.44848544198, -47516.3520219114, 0, ]
  - [19500, -47492.7012461903, 2406.25809135255, -45086.4431548377, 1596.12644384678, 53.6084, 53.6084, 53.6084, 154063.065938641, -738.927973407734, -1358.08537617096, 542.810988218797, -1401.50953227104, -47492.7012461903, 0, ]
  - [19600, -47493.7611117416, 2425.33000681152, -45068.4311049301, 1608.77728488011, 53.6084, 53.6084, 53.6084, 154063.065938641, -308.347305601719, 602.713102628647, -1500.65748796494, -27.0975314688548, -47493.7611117416, 0, ]
  - [19700, -47502.9350720922, 2400.28402569896, -45102.6510463932, 1592.16370842732, 53.6084, 53.6084, 53.6084, 154063.065938641, -1443.94696194782, -1676.83670266026, -3042.61875559304, 387.614572409841, -47502.9350720922, 0, ]
  - [19800, -47512.9589382597, 2421.59904249571, -45091.359895764, 1606.30245026993, 53.6084, 53.6084, 53.6084, 154063.065938641, -1671.50118419141, -1391.12011752896, -1160.45553667734, -2462.92789836792, -47512.9589382597, 0, ]
  - [19900, -47519.5661693504, 2426.30079618336, -45093.265373167, 1609.42123184215, 53.6084, 53.6084, 53.6084, 154063.065938641, -3131.61845595854, -2920.1203180779, -2728.09644094481, -3746.63860885292, -47519.5661693504, 0, ]
  - [20000, -47482.6589160524, 2417.37152695368, -45065.2873890987, 1603.49824178845, 53.6084, 53.6084, 53.6084, 154063.065938641, 981.518306585205, 336.583071706051, 1111.22064441599, 1496.75120363358, -50173.9705691442, 0, ]
...
Loop time of 25.6942 on 64 procs for 20000 steps with 11664 atoms

Performance: 67.252 ns/day, 0.357 hours/ns, 778.385 timesteps/s, 9.079 Matom-step/s
66.3% CPU use with 64 MPI tasks x 1 OpenMP threads

MPI task timing breakdown:
Section |  min time  |  avg time  |  max time  |%varavg| %total
---------------------------------------------------------------
Pair    | 13.622     | 14.849     | 15.376     |   6.4 | 57.79
Neigh   | 0.094294   | 0.10932    | 0.12233    |   1.0 |  0.43
Comm    | 6.1619     | 7.2022     | 8.2342     |  18.4 | 28.03
Output  | 0.032262   | 0.033814   | 0.1164     |   5.7 |  0.13
Modify  | 2.3081     | 2.9574     | 3.6827     |  24.3 | 11.51
Other   |            | 0.5429     |            |       |  2.11

Nlocal:         182.25 ave         191 max         174 min
Histogram: 5 5 6 5 10 16 3 3 9 2
Nghost:        1260.47 ave        1272 max        1245 min
Histogram: 1 4 4 4 8 11 9 14 8 1
Neighs:         6992.5 ave        7455 max        6622 min
Histogram: 7 2 8 9 11 11 8 4 3 1

Total # of neighbors = 447520
Ave neighs/atom = 38.367627
Neighbor list builds = 290
Dangerous builds = 0
fix fpf all print 1 "${dE} ${lambda}" title "# dE [eV] lambda" screen no file data/forward_${T}K.dat
fix fpf all print 1 "${dE} ${lambda}" title "# dE [eV] lambda" screen no file data/forward_1600K.dat
run ${t}
run 100000
Per MPI rank memory allocation (min/avg/max) = 3.736 | 3.736 | 3.736 Mbytes
---
keywords: ['Step', 'PotEng', 'KinEng', 'TotEng', 'Temp', 'Lx', 'Ly', 'Lz', 'Volume', 'Press', 'Pxx', 'Pyy', 'Pzz', 'v_dE', 'v_lambda', ]
data:
  - [20000, -47482.6589160524, 2417.37152695368, -45065.2873890987, 1603.49824178845, 53.6084, 53.6084, 53.6084, 154063.065938641, 981.518306585195, 336.583071706061, 1111.22064441596, 1496.75120363357, -50173.9705691442, 0, ]
  - [20100, -47517.4538780082, 2427.65287718207, -45089.8010008261, 1610.31809832709, 53.6084, 53.6084, 53.6084, 154063.065938641, -2482.1376332133, -3357.84984905322, -2531.58615010584, -1556.97690048086, -50238.2580809766, 1.2558053968507e-13, ]
  - [20200, -47506.7155353112, 2431.10585176836, -45075.6096835429, 1612.60853594346, 53.6084, 53.6084, 53.6084, 154063.065938641, -1577.97795964529, -1135.00346459916, -1379.64503653988, -2219.28537779684, -50217.3093046548, 4.00518903939584e-12, ]
  - [20300, -47487.5994339516, 2427.77833799561, -45059.821095956, 1610.40131937594, 53.6084, 53.6084, 53.6084, 154063.065938641, 662.242428828816, -268.948210749506, 1588.77670516583, 666.898792070125, -50244.8619639923, 3.03129989146628e-11, ]
  - [20400, -47478.0240499614, 2426.93534713121, -45051.0887028302, 1609.84214410899, 53.6084, 53.6084, 53.6084, 154063.065938641, 1504.14153636999, 2449.593086824, 761.807163800944, 1301.02435848504, -50285.630858857, 1.2731250673451e-10, ]
  - [20500, -47483.5674149705, 2404.25937174994, -45079.3080432206, 1594.80064707418, 53.6084, 53.6084, 53.6084, 154063.065938641, 498.192689390608, 784.501305242885, 785.986186678196, -75.9094237492635, -50327.4942953696, 3.87229564589844e-10, ]
  - [20600, -47489.2473662054, 2434.03622540288, -45055.2111408025, 1614.55232030525, 53.6084, 53.6084, 53.6084, 154063.065938641, 640.775821956725, 446.779369246356, -378.726239887827, 1854.27433651165, -50242.3810837396, 9.60331117066399e-10, ]
  - [20700, -47472.7387346544, 2412.66128045314, -45060.0774542013, 1600.37382673772, 53.6084, 53.6084, 53.6084, 154063.065938641, 1712.5846226686, 2027.84109745186, 539.206680264739, 2570.70609028919, -50270.3022030309, 2.06871232013244e-09, ]
  - [20800, -47484.8302782163, 2395.19411408393, -45089.6361641323, 1588.78745275683, 53.6084, 53.6084, 53.6084, 154063.065938641, -15.1484197024396, 1142.10466807598, -1207.16000729247, 19.6100801091713, -50321.7958129762, 4.0197947066522e-09, ]
  - [20900, -47479.6553958912, 2415.75318751368, -45063.9022083776, 1602.42475994351, 53.6084, 53.6084, 53.6084, 154063.065938641, 1405.31612868391, 1652.07446104893, 1182.41930722549, 1381.45461777731, -50317.0788795678, 7.21953805066232e-09, ]
  - [21000, -47482.3669174149, 2413.31332532343, -45069.0535920915, 1600.80634312646, 53.6084, 53.6084, 53.6084, 154063.065938641, 575.711570416817, -415.02738838551, 743.691718782008, 1398.47038085395, -50295.6780474206, 1.218536857e-08, ]
  - [21100, -47477.7497603164, 2398.73039741964, -45079.0193628968, 1591.13315098652, 53.6084, 53.6084, 53.6084, 154063.065938641, 1689.23956806368, 2875.24794151474, 909.159321002664, 1283.31144167363, -50272.2062625587, 1.95588260943488e-08, ]
  - [21200, -47490.8348846666, 2405.71428280611, -45085.1206018605, 1595.76572310594, 53.6084, 53.6084, 53.6084, 154063.065938641, -512.995358503421, -1160.12800756181, -1009.40683586451, 630.548767916052, -50281.3503288917, 3.01179328132704e-08, ]
  - [21300, -47478.4781290032, 2424.34344081279, -45054.1346881904, 1608.12287291789, 53.6084, 53.6084, 53.6084, 154063.065938641, 1845.83669638397, 1888.84899658291, 1390.7791390972, 2257.8819534718, -50315.0782056164, 4.47892862063179e-08, ]
  - [21400, -47496.4453238939, 2471.25920517636, -45025.1861187175, 1639.24318058692, 53.6084, 53.6084, 53.6084, 154063.065938641, -339.855654254706, 284.679957682694, -378.660364218793, -925.586556228013, -50302.2544484776, 6.46598787448807e-08, ]
  - [21500, -47476.9923033409, 2427.15082999833, -45049.8414733425, 1609.98507886052, 53.6084, 53.6084, 53.6084, 154063.065938641, 834.784216510141, 795.824013552151, -167.453067504357, 1875.98170348263, -50310.0481970684, 9.09886469429883e-08, ]
  - [21600, -47462.5313896428, 2426.35340269718, -45036.1779869457, 1609.45612695507, 53.6084, 53.6084, 53.6084, 154063.065938641, 2677.37122282682, 3898.46322749212, 2552.2496321345, 1581.40080885384, -50323.5144624465, 1.25217752321905e-07, ]
  - [21700, -47478.1304835528, 2415.78216483885, -45062.3483187139, 1602.44398127107, 53.6084, 53.6084, 53.6084, 154063.065938641, 2022.63471778726, 2824.92996394729, 2927.75181584048, 315.222373574035, -50295.9831303745, 1.68983596840977e-07, ]
  - [21800, -47489.0713842022, 2430.55357286833, -45058.5178113339, 1612.24219662188, 53.6084, 53.6084, 53.6084, 154063.065938641, 985.014124560026, 303.913547221281, 915.336864566474, 1735.79196189232, -50261.3510131522, 2.24127575334849e-07, ]
  - [21900, -47467.2778177114, 2396.53456325935, -45070.7432544521, 1589.67660358533, 53.6084, 53.6084, 53.6084, 154063.065938641, 2016.13718516558, 2090.36300220103, 1500.08048063947, 2457.96807265623, -50273.8502841765, 2.92706567484841e-07, ]
  - [22000, -47480.5765416233, 2393.85781378744, -45086.7187278359, 1587.90105397532, 53.6084, 53.6084, 53.6084, 154063.065938641, 1366.70479951913, 1206.31974892069, 916.684401684852, 1977.11024795183, -50320.819546968, 3.7700317184e-07, ]
  - [22100, -47484.1691110035, 2430.95911564395, -45053.2099953595, 1612.51120249062, 53.6084, 53.6084, 53.6084, 154063.065938641, 641.008763139809, 257.166211217905, 927.336057523029, 738.524020678493, -50360.113247088, 4.79535684391045e-07, ]
  - [22200, -47473.8455008914, 2416.17435618273, -45057.6711447086, 1602.70413082746, 53.6084, 53.6084, 53.6084, 154063.065938641, 1139.91956726705, 1675.41207328526, 739.194497515045, 1005.15213100085, -50341.2454832448, 6.03067824188202e-07, ]
  - [22300, -47487.1306558771, 2398.17646447474, -45088.9541914024, 1590.76571449886, 53.6084, 53.6084, 53.6084, 154063.065938641, 390.409572650754, 429.203603589205, 252.242981975911, 489.782132387156, -50398.4027014006, 7.50618208481703e-07, ]
  - [22400, -47485.2521551965, 2427.82880505494, -45057.4233501416, 1610.4347953394, 53.6084, 53.6084, 53.6084, 154063.065938641, 1298.07520294032, 1525.88739284747, 1303.10543100485, 1065.23278496863, -50378.4672456297, 9.25469579851522e-07, ]
  - [22500, -47474.2995669717, 2408.14866462032, -45066.1509023514, 1597.38050466327, 53.6084, 53.6084, 53.6084, 154063.065938641, 1949.03172769941, 1913.30745035096, 1825.0819689229, 2108.70576382438, -50399.2494356526, 1.13117778778076e-06, ]
  - [22600, -47513.2434021151, 2382.26850902318, -45130.9748930919, 1580.21360105143, 53.6084, 53.6084, 53.6084, 154063.065938641, -2151.5440925728, -1995.31112233887, -1570.25184567548, -2889.06930970405, -50507.0208799625, 1.37158052711496e-06, ]
  - [22700, -47484.65625277, 2383.31342632134, -45101.3428264487, 1580.90671877525, 53.6084, 53.6084, 53.6084, 154063.065938641, -548.775643499966, 560.563667911429, -247.059053183547, -1959.83154522777, -50451.3849435689, 1.65080583583745e-06, ]
  - [22800, -47505.6564477951, 2394.10485149488, -45111.5515963002, 1588.06491977962, 53.6084, 53.6084, 53.6084, 154063.065938641, -1675.90144878174, -786.620406882782, -2875.28332798462, -1365.80061147781, -50411.7572420863, 1.97328035457892e-06, ]
  - [22900, -47454.8085357175, 2419.62473490533, -45035.1838008122, 1604.99284654761, 53.6084, 53.6084, 53.6084, 154063.065938641, 3342.18592165679, 4181.20943164316, 1684.60939938051, 4160.73893394669, -50373.710791518, 2.343737350267e-06, ]
  - [23000, -47500.035390234, 2428.88229412145, -45071.1530961126, 1611.13359891471, 53.6084, 53.6084, 53.6084, 154063.065938641, -426.983675033954, 191.117102431264, -98.0427828571355, -1374.02534467599, -50443.3291768726, 2.76722450631e-06, ]
  - [23100, -47515.4503185534, 2422.3749710822, -45093.0753474712, 1606.81714158251, 53.6084, 53.6084, 53.6084, 154063.065938641, -2583.84197606834, -2044.24884276485, -1934.45128218606, -3772.82580325413, -50467.356879512, 3.2491114816967e-06, ]
  - [23200, -47487.8788407751, 2400.90629209476, -45086.9725486803, 1592.57647206769, 53.6084, 53.6084, 53.6084, 154063.065938641, -178.615958428281, -639.171998284461, 848.025149974899, -744.701026975281, -50448.5009681743, 3.79509724138202e-06, ]
  - [23300, -47503.2841827564, 2408.49758331901, -45094.7865994374, 1597.61195047688, 53.6084, 53.6084, 53.6084, 154063.065938641, -1017.95271588324, 75.5060966414233, -689.088842446224, -2440.2754018449, -50393.1784002068, 4.41121716031674e-06, ]
  - [23400, -47488.6611547058, 2425.17383460723, -45063.4873200986, 1608.67369225804, 53.6084, 53.6084, 53.6084, 154063.065938641, 540.951866682559, 1114.45837641274, -27.2346214692507, 535.631845104189, -50401.9629554135, 5.10384990346721e-06, ]
  - [23500, -47487.4197008617, 2422.68856179813, -45064.7311390635, 1607.02515353103, 53.6084, 53.6084, 53.6084, 154063.065938641, 34.5456309131576, 187.022178812579, -1056.47934243074, 973.094056357615, -50437.0490965239, 5.87972408415916e-06, ]
  - [23600, -47473.4715089513, 2432.33835175125, -45041.1331572001, 1613.42608158488, 53.6084, 53.6084, 53.6084, 154063.065938641, 2257.46312601541, 2242.87243020918, 3542.58408508203, 986.93286275503, -50410.1975407852, 6.74592470306796e-06, ]
  - [23700, -47470.7759484756, 2436.80669281611, -45033.9692556595, 1616.39003518545, 53.6084, 53.6084, 53.6084, 154063.065938641, 2218.90015150698, 1900.22628950032, 3727.99177205434, 1028.48239296629, -50374.6228814835, 7.70989937016563e-06, ]
  - [23800, -47487.8463045227, 2397.23283829778, -45090.6134662249, 1590.13978550997, 53.6084, 53.6084, 53.6084, 154063.065938641, 408.358932275189, 1441.4351768876, -612.251746009239, 395.893365947203, -50385.7441203013, 8.77946431192315e-06, ]
  - [23900, -47499.7752697256, 2413.82026546786, -45085.9550042577, 1601.14260820662, 53.6084, 53.6084, 53.6084, 154063.065938641, -786.383512216475, -1091.3521533759, -156.187466012807, -1111.61091726072, -50403.0083577189, 9.96281016605489e-06, ]
  - [24000, -47507.9148623887, 2443.95550340738, -45063.9593589814, 1621.13200599389, 53.6084, 53.6084, 53.6084, 154063.065938641, -1738.05828767368, -2190.90144466388, -753.099639934126, -2270.17377842302, -50412.6118757583, 1.126850756608e-05, ]
  - [24100, -47467.7894700096, 2409.60171991948, -45058.1877500901, 1598.34434972864, 53.6084, 53.6084, 53.6084, 154063.065938641, 1766.8966035955, 1462.11181957683, 1464.07859831016, 2374.4993928995, -50382.0373430857, 1.2705512517964e-05, ]
  - [24200, -47484.8301212859, 2404.76738042594, -45080.0627408599, 1595.13762093595, 53.6084, 53.6084, 53.6084, 154063.065938641, 588.906451090826, 1692.94661001736, -683.420752044409, 757.193495299531, -50382.6883342621, 1.42831715710919e-05, ]
  - [24300, -47467.5517508173, 2426.55152562981, -45041.0002251875, 1609.587546462, 53.6084, 53.6084, 53.6084, 154063.065938641, 2062.05935147341, 1914.43495934367, 3403.31091883596, 868.432176240604, -50376.9685290647, 1.60112267858132e-05, ]
  - [24400, -47491.214960513, 2439.06748212544, -45052.1474783876, 1617.88966883387, 53.6084, 53.6084, 53.6084, 154063.065938641, -595.275013035124, -1285.23526521113, 144.427874855566, -645.017648749806, -50430.9259149339, 1.78998204997854e-05, ]
  - [24500, -47459.3723628184, 2403.63182323862, -45055.7405395797, 1594.38437968486, 53.6084, 53.6084, 53.6084, 154063.065938641, 2813.13869042689, 3028.14424622661, 2799.16066374639, 2612.11116130767, -50408.6990846208, 1.99594998953344e-05, ]
  - [24600, -47503.448175608, 2390.95795964155, -45112.4902159665, 1585.97751389366, 53.6084, 53.6084, 53.6084, 154063.065938641, -1836.88691040965, -1545.84685401727, -1568.6079601434, -2396.20591706826, -50418.2847198832, 2.2201221370035e-05, ]
  - [24700, -47489.8913100935, 2432.72568464524, -45057.1656254482, 1613.68300841949, 53.6084, 53.6084, 53.6084, 154063.065938641, 66.8222447321183, 342.004625838742, -11.1629280509367, -130.37496359145, -50374.0417240192, 2.46363547127047e-05, ]
  - [24800, -47475.2399093479, 2427.30610380652, -45047.9338055414, 1610.08807555575, 53.6084, 53.6084, 53.6084, 154063.065938641, 1879.08450096169, 987.225362345304, 2296.85786412351, 2353.17027641627, -50375.8714080282, 2.7276687086994e-05, ]
  - [24900, -47483.0069857665, 2401.81196322419, -45081.1950225423, 1593.17722459889, 53.6084, 53.6084, 53.6084, 154063.065938641, 846.015225919911, 1972.0322518638, 372.529389132456, 193.484036763471, -50409.7056018805, 3.01344268247409e-05, ]
  - [25000, -47480.3263963176, 2398.50235266545, -45081.8240436522, 1590.9818836458, 53.6084, 53.6084, 53.6084, 154063.065938641, 876.759784547021, 666.745225265724, 1229.89711953221, 733.637008843125, -50362.9109601659, 3.322220703125e-05, ]
  - [25100, -47487.834118356, 2430.24985259033, -45057.5842657657, 1612.0407319623, 53.6084, 53.6084, 53.6084, 154063.065938641, -179.197600554698, -361.616765605531, -80.5149598194741, -95.4610762390899, -50277.5084569403, 3.6553089004642e-05, ]
  - [25200, -47484.5539119213, 2415.50349622351, -45069.0504156977, 1602.25913395664, 53.6084, 53.6084, 53.6084, 154063.065938641, 1403.42357035072, 955.196798938169, 2499.06577586108, 756.008136252907, -50298.040456988, 4.01405654714096e-05, ]
  - [25300, -47506.1578156473, 2406.47520322061, -45099.6826124267, 1596.27045915218, 53.6084, 53.6084, 53.6084, 154063.065938641, -1198.46341759434, -793.875647412514, -723.765048955547, -2077.74955641494, -50331.4798016946, 4.39985636403039e-05, ]
  - [25400, -47515.7750742306, 2422.05930453003, -45093.7157697005, 1606.60775268396, 53.6084, 53.6084, 53.6084, 154063.065938641, -2341.72207456645, -76.8835603358951, -3879.57980664552, -3068.70285671793, -50322.6034532753, 4.81414480766634e-05, ]
  - [25500, -47512.8053072476, 2381.20771818727, -45131.5975890604, 1579.5099540442, 53.6084, 53.6084, 53.6084, 154063.065938641, -3167.20657679852, -1683.64680727859, -4892.73532316915, -2925.23759994781, -50333.5075270105, 5.25840233992879e-05, ]
  - [25600, -47511.4402456842, 2405.27212371433, -45106.1681219698, 1595.47242879087, 53.6084, 53.6084, 53.6084, 154063.065938641, -1996.14733850162, -1813.23603774972, -2082.9934006095, -2092.21257714564, -50285.053875303, 5.7341536801945e-05, ]
  - [25700, -47487.3942048919, 2390.15350476453, -45097.2407001273, 1585.4439004352, 53.6084, 53.6084, 53.6084, 154063.065938641, 283.56055818232, 318.555118352078, 691.679583229923, -159.553027035031, -50292.0968560481, 6.24296804015908e-05, ]
  - [25800, -47499.1000037549, 2422.20748977727, -45076.8925139776, 1606.70604737336, 53.6084, 53.6084, 53.6084, 154063.065938641, -547.911566846323, -1160.15259314812, -54.8902492573261, -428.691858133518, -50221.0812022129, 6.78645934153687e-05, ]
  - [25900, -47491.0587841943, 2419.40961996899, -45071.6491642253, 1604.85015585305, 53.6084, 53.6084, 53.6084, 154063.065938641, -125.939630746802, 142.74042237683, -23.5771434148995, -496.982171202343, -50217.7046293769, 7.36628641684442e-05, ]
  - [26000, -47505.5799179886, 2402.0582853989, -45103.5216325897, 1593.34061577384, 53.6084, 53.6084, 53.6084, 154063.065938641, -1359.95843743664, -420.202189000901, -2361.98478001838, -1297.68834329066, -50240.0897524735, 7.98415319347201e-05, ]
  - [26100, -47491.1557065249, 2421.44211139413, -45069.7135951308, 1606.1983542538, 53.6084, 53.6084, 53.6084, 154063.065938641, 293.229272295674, -148.415107199132, -326.792085467747, 1354.8950095539, -50255.1356105835, 8.64180886124637e-05, ]
  - [26200, -47496.3028643503, 2410.89557997193, -45085.4072843784, 1599.20259691824, 53.6084, 53.6084, 53.6084, 154063.065938641, -200.414974169984, 92.6891164303072, -1932.3732259982, 1238.43918705794, -50308.0289015614, 9.34104802368714e-05, ]
  - [26300, -47496.6186531451, 2397.01573968073, -45099.6029134644, 1589.99577899427, 53.6084, 53.6084, 53.6084, 154063.065938641, -41.1437471278919, 578.67739273935, -610.95908300168, -91.1495511213389, -50331.9151982995, 0.000100837108331577, ]
  - [26400, -47490.2869628162, 2397.06027616841, -45093.2266866478, 1590.02532107288, 53.6084, 53.6084, 53.6084, 154063.065938641, 453.78265773036, -723.869272288487, 644.041817543997, 1441.17542793557, -50320.5489149388, 0.000108716831101108, ]
  - [26500, -47480.8339054562, 2381.01382418876, -45099.8200812674, 1579.38133968673, 53.6084, 53.6084, 53.6084, 154063.065938641, 848.271034297732, 2044.61788311161, 289.634074934955, 210.561144846639, -50249.4660589856, 0.000117068964466276, ]
  - [26600, -47474.8088137455, 2405.04425608978, -45069.7645576557, 1595.32127894433, 53.6084, 53.6084, 53.6084, 154063.065938641, 1461.54316762779, 2101.96361859733, 1908.55346007333, 374.11242421271, -50238.7976435138, 0.000125913282944476, ]
  - [26700, -47488.8473873164, 2408.95621716017, -45079.8911701562, 1597.91617287288, 53.6084, 53.6084, 53.6084, 154063.065938641, -244.126374296601, -569.783995859485, 442.504597385739, -605.099724416059, -50252.2522667537, 0.000135270020376872, ]
  - [26800, -47482.7544606407, 2442.64824156258, -45040.1062190781, 1620.26486908658, 53.6084, 53.6084, 53.6084, 154063.065938641, 1469.01829078557, 1575.35396397238, 829.87658713677, 2001.82432124755, -50251.551214306, 0.000145159870504403, ]
  - [26900, -47477.6075421787, 2441.70261805121, -45035.9049241275, 1619.63761521974, 53.6084, 53.6084, 53.6084, 154063.065938641, 721.457480102124, 546.252089973435, 994.475244243495, 623.645106089439, -50252.3449565025, 0.000155603987394582, ]
  - [27000, -47486.3750895735, 2448.01277428907, -45038.3623152844, 1623.8232872689, 53.6084, 53.6084, 53.6084, 154063.065938641, 377.11302646628, 1102.61624585593, 142.500035957453, -113.777202414543, -50201.4762802623, 0.00016662398572099, ]
  - [27100, -47478.5157264758, 2410.26654430328, -45068.2491821725, 1598.78534306319, 53.6084, 53.6084, 53.6084, 154063.065938641, 1337.7357011032, 2175.75525155779, -7.99765707886052, 1845.44950883069, -50222.7893604718, 0.000178241940897419, ]
  - [27200, -47490.9099905092, 2419.5879449435, -45071.3220455657, 1604.96844291811, 53.6084, 53.6084, 53.6084, 154063.065938641, 774.202114717469, -13.8799433811407, 803.603249317818, 1532.88303821572, -50156.5245653649, 0.000190480389068545, ]
  - [27300, -47494.2584937091, 2411.39256179086, -45082.8659319183, 1599.53225641161, 53.6084, 53.6084, 53.6084, 154063.065938641, -332.902307754946, -2074.79309563965, 626.513109020454, 449.573063354357, -50131.264041755, 0.000203362326959055, ]
  - [27400, -47528.2645715781, 2384.3194079193, -45143.9451636587, 1581.57400955188, 53.6084, 53.6084, 53.6084, 154063.065938641, -4132.88179229356, -4810.52785347459, -4373.95727468028, -3214.1602487258, -50148.9386902871, 0.000216911211583103, ]
  - [27500, -47486.3820059791, 2416.2018259554, -45070.1801800237, 1602.72235216071, 53.6084, 53.6084, 53.6084, 154063.065938641, 625.97651925114, -180.039019382185, -248.61372958467, 2306.58230672027, -50098.6134562013, 0.000231150959815979, ]
  - [27600, -47464.2550158245, 2404.06235758653, -45060.1926582379, 1594.66996303943, 53.6084, 53.6084, 53.6084, 154063.065938641, 2862.63758120298, 2866.01433953079, 3251.85099337651, 2470.04741070166, -50041.0966743504, 0.00024610594782986, ]
  - [27700, -47487.6193103845, 2406.50283091343, -45081.1164794711, 1596.2887852375, 53.6084, 53.6084, 53.6084, 154063.065938641, -130.568418059303, 14.9448232428626, -100.88394724746, -305.766130173309, -50056.1687725275, 0.000261801010395495, ]
  - [27800, -47510.3867046652, 2387.90471641341, -45122.4819882518, 1583.95222729891, 53.6084, 53.6084, 53.6084, 154063.065938641, -1356.78858269532, -1248.13924753754, -1550.89193784973, -1271.33456269869, -50020.491886405, 0.000278261440051671, ]
  - [27900, -47495.9745786062, 2392.86271348601, -45103.1118651201, 1587.24098101346, 53.6084, 53.6084, 53.6084, 154063.065938641, -1111.70616799532, 240.078416353181, -1520.08936680951, -2055.10755352964, -50020.0267148227, 0.000295512986144304, ]
  - [28000, -47478.1244777179, 2398.53927534588, -45079.585202372, 1591.00637531061, 53.6084, 53.6084, 53.6084, 154063.065938641, 788.757608171376, 904.919115794612, 1720.00246110835, -258.648752388844, -50074.4708321627, 0.00031358185373696, ]
  - [28100, -47521.71057524, 2453.23316603715, -45068.4774092029, 1627.28609341855, 53.6084, 53.6084, 53.6084, 154063.065938641, -3834.4802723579, -2950.70246285759, -4524.17829539208, -4028.56005882402, -50112.1052996939, 0.000332494702394641, ]
  - [28200, -47489.6952898251, 2427.56378183483, -45062.1315079903, 1610.25899933008, 53.6084, 53.6084, 53.6084, 154063.065938641, 299.074701945667, 1094.88606476769, -1062.3894222427, 864.727463312004, -50068.0379162278, 0.000352278644842627, ]
  - [28300, -47493.3330349428, 2409.49209661395, -45083.8409383288, 1598.27163406383, 53.6084, 53.6084, 53.6084, 154063.065938641, 145.792842384431, 1065.78440389053, 264.85910799426, -893.264984731502, -50084.9896134393, 0.000372961245502164, ]
  - [28400, -47495.3850408952, 2409.25203930725, -45086.133001588, 1598.11239852021, 53.6084, 53.6084, 53.6084, 154063.065938641, -167.944857581493, -1168.3770797489, 1393.20314187938, -728.660634874957, -50148.5923203811, 0.000394570518904788, ]
  - [28500, -47490.1653922982, 2423.77096695832, -45066.3944253399, 1607.74313781765, 53.6084, 53.6084, 53.6084, 154063.065938641, 522.647563649167, 1264.03854441283, 497.147200751423, -193.243054216752, -50127.5139333707, 0.000417134927987054, ]
  - [28600, -47490.3975830457, 2419.50655891297, -45070.8910241328, 1604.91445768853, 53.6084, 53.6084, 53.6084, 154063.065938641, 1080.99021346771, 793.203259555572, 212.982237044657, 2236.78514380291, -50116.7949259513, 0.000440683382267422, ]
  - [28700, -47508.3776064912, 2421.33921544028, -45087.0383910509, 1606.13010099639, 53.6084, 53.6084, 53.6084, 154063.065938641, -1311.45779626009, -1907.59138041018, -657.430523308225, -1369.35148506186, -50140.973075218, 0.000465245235907057, ]
  - [28800, -47502.0863294279, 2417.34254208748, -45084.7437873404, 1603.47901545874, 53.6084, 53.6084, 53.6084, 154063.065938641, -1151.88988519828, -889.115968542573, -514.301693715683, -2052.2519933366, -50156.8233991019, 0.000490850285656287, ]
  - [28900, -47486.5815611608, 2441.58919083398, -45044.9923703268, 1619.56237633264, 53.6084, 53.6084, 53.6084, 154063.065938641, 537.922116616811, -566.190359413979, 795.776990365445, 1384.17971889897, -50182.7003102012, 0.000517528768688429, ]
  - [29000, -47501.4712580608, 2438.04893926204, -45063.4223187988, 1617.21404588041, 53.6084, 53.6084, 53.6084, 154063.065938641, -1164.47474281982, -631.020138658642, -1817.88340307566, -1044.52068672517, -50223.1131866489, 0.00054531136032273, ]
  - [29100, -47474.5695256479, 2404.11094414673, -45070.4585815012, 1594.70219162448, 53.6084, 53.6084, 53.6084, 154063.065938641, 892.324233127636, 48.37883534252, 2244.23653831504, 384.357325725347, -50190.4753865237, 0.000574229171638096, ]
  - [29200, -47514.415741152, 2415.17361391286, -45099.2421272391, 1602.0403154179, 53.6084, 53.6084, 53.6084, 154063.065938641, -2788.1972272947, -3244.42506648851, -1075.22798783858, -4044.93862755701, -50244.2050823006, 0.000604313746979337, ]
  - [29300, -47507.3833391506, 2415.67525553636, -45091.7080836143, 1602.37306586702, 53.6084, 53.6084, 53.6084, 154063.065938641, -823.690129919003, -555.363879277804, -567.264794528593, -1348.44171595061, -50252.4130383902, 0.000635597061357593, ]
  - [29400, -47501.1616884728, 2444.82924932078, -45056.332439152, 1621.71158179359, 53.6084, 53.6084, 53.6084, 154063.065938641, -1140.33335602224, -424.233435627412, -1673.76074274703, -1323.00588969227, -50311.7514008861, 0.000668111517746635, ]
  - [29500, -47514.2798583025, 2409.61721306428, -45104.6626452383, 1598.35462668862, 53.6084, 53.6084, 53.6084, 154063.065938641, -2019.47198359464, -1644.31455572729, -1233.74673569146, -3180.35465936517, -50303.8146035547, 0.000701889944276683, ]
  - [29600, -47498.4100950639, 2402.37652377567, -45096.0335712882, 1593.5517106229, 53.6084, 53.6084, 53.6084, 154063.065938641, -627.782373767465, -447.729055465161, -581.496430945232, -854.121634891996, -50281.3003834233, 0.000736965591327429, ]
  - [29700, -47484.4912534675, 2399.19398122525, -45085.2972722423, 1591.440656808, 53.6084, 53.6084, 53.6084, 154063.065938641, 612.299016203569, 701.531403309009, 348.938355695593, 786.427289606116, -50293.5252824895, 0.000773372128521878, ]
  - [29800, -47520.2445202831, 2397.10281306805, -45123.1417072151, 1590.05353677867, 53.6084, 53.6084, 53.6084, 154063.065938641, -2777.82194064058, -1456.36095805207, -3142.06597473643, -3735.03888913325, -50305.2720035176, 0.00081114364162266, ]
  - [29900, -47495.7391623225, 2408.1735530785, -45087.565609244, 1597.39701375113, 53.6084, 53.6084, 53.6084, 154063.065938641, -703.856999939872, -1294.79418143294, -419.115714825162, -397.661103561506, -50323.2450281404, 0.000850314629332433, ]
  - [30000, -47501.9057298316, 2407.10258723771, -45094.8031425939, 1596.68661742869, 53.6084, 53.6084, 53.6084, 154063.065938641, -1391.2962948517, -497.585716605922, -1999.59377909445, -1676.70938885474, -50304.6045331221, 0.000890920000000001, ]
  - [30100, -47493.1050502675, 2392.74899064482, -45100.3560596227, 1587.16554603217, 53.6084, 53.6084, 53.6084, 154063.065938641, -6.39683788675855, -128.369120866139, -216.132365401943, 325.310972607816, -50351.3751070992, 0.000932995068233718, ]
  - [30200, -47482.8001342561, 2382.7899519317, -45100.0101823244, 1580.55948614922, 53.6084, 53.6084, 53.6084, 154063.065938641, 763.600336697896, 1484.54143690001, 703.935843851197, 102.323729342483, -50382.5834409847, 0.000976575551423828, ]
  - [30300, -47483.0056088041, 2419.73190284302, -45063.2737059611, 1605.06393351035, 53.6084, 53.6084, 53.6084, 154063.065938641, 1301.3659537017, 367.187897626734, 1442.73153182762, 2094.17843165076, -50341.8506944308, 0.00102169756617526, ]
  - [30400, -47468.2058140654, 2426.45786158592, -45041.7479524795, 1609.52541694322, 53.6084, 53.6084, 53.6084, 154063.065938641, 1535.26700775945, 1262.11572156542, 1791.43869323182, 1552.24660848111, -50365.1873231391, 0.00106839762465251, ]
  - [30500, -47509.3318526687, 2436.84449043861, -45072.4873622301, 1616.41510721949, 53.6084, 53.6084, 53.6084, 154063.065938641, -1969.96670143201, -1484.96166875237, -2017.45093617417, -2407.48749936951, -50361.1698221201, 0.00111671263083812, ]
  - [30600, -47483.2166282252, 2380.36124503542, -45102.8553831898, 1578.94846889573, 53.6084, 53.6084, 53.6084, 154063.065938641, 537.567698692082, 1177.0325068628, 27.0016273805529, 408.668961832905, -50306.6369517196, 0.00116667987670637, ]
  - [30700, -47494.8381997191, 2414.51404345102, -45080.3241562681, 1601.60280713086, 53.6084, 53.6084, 53.6084, 154063.065938641, -268.698488287896, -260.749651534123, -565.334196037658, 19.988382708086, -50333.5134018754, 0.00121833703831365, ]
  - [30800, -47501.5276614665, 2413.58030744667, -45087.9473540198, 1600.98343852137, 53.6084, 53.6084, 53.6084, 154063.065938641, -532.362090224988, 384.314795431584, -304.629387548684, -1676.77167855786, -50299.8204623566, 0.00127172217180712, ]
  - [30900, -47513.6949527971, 2385.79511625119, -45127.8998365459, 1582.55288089589, 53.6084, 53.6084, 53.6084, 154063.065938641, -1471.19615673317, -1439.64485584491, -1178.57701966231, -1795.36659469229, -50279.713371264, 0.00132687370935312, ]
  - [31000, -47492.7844336296, 2402.2551882008, -45090.5292454288, 1593.47122593993, 53.6084, 53.6084, 53.6084, 154063.065938641, -671.819145477311, -1212.23839239619, -461.646828224305, -341.572215811431, -50260.251497513, 0.00138383045498687, ]
  - [31100, -47500.8868894583, 2428.44175023255, -45072.4451392257, 1610.84137600094, 53.6084, 53.6084, 53.6084, 154063.065938641, -788.882770034193, -412.842095087271, -812.226625464534, -1141.57958955077, -50288.2686591581, 0.00144263158038501, ]
  - [31200, -47488.3801149925, 2416.50654025471, -45071.8735747378, 1602.92447617753, 53.6084, 53.6084, 53.6084, 154063.065938641, 236.89536723171, 1482.71761012379, 80.1314202782924, -852.162928706945, -50278.1183143273, 0.00150331662056234, ]
  - [31300, -47489.4570405521, 2411.49413477566, -45077.9629057764, 1599.59963211315, 53.6084, 53.6084, 53.6084, 154063.065938641, 201.280796315208, 780.933353718619, 698.570177411663, -875.661142184661, -50173.1485935741, 0.00156592546949443, ]
  - [31400, -47456.5668011718, 2383.89276094018, -45072.6740402316, 1581.29100477861, 53.6084, 53.6084, 53.6084, 154063.065938641, 3019.49031661258, 2202.21001784451, 3794.49086876346, 3061.77006322975, -50040.1141575366, 0.00163049837566735, ]
  - [31500, -47477.3377200275, 2411.09230717997, -45066.2454128475, 1599.33309060888, 53.6084, 53.6084, 53.6084, 154063.065938641, 2227.38381896621, 1300.26578504361, 3098.9121891281, 2282.97348272694, -50032.5467630314, 0.00169707593755625, ]
  - [31600, -47511.4595404504, 2406.08679334254, -45105.3727471079, 1596.0128179292, 53.6084, 53.6084, 53.6084, 154063.065938641, -2629.76514514501, -4298.38632417142, -1717.15085173625, -1873.75825952735, -50076.3479908262, 0.00176569909903396, ]
  - [31700, -47504.797324534, 2394.55307849155, -45110.2442460424, 1588.36223907584, 53.6084, 53.6084, 53.6084, 154063.065938641, -2077.49522293373, -1535.54495426022, -2205.84002929369, -2491.10068524728, -50080.0216013067, 0.0018364091447113, ]
[...]
  - [232600, -47492.2629630958, 2414.2228985884, -45078.0400645074, 1601.4096840341, 53.6084, 53.6084, 53.6084, 154063.065938641, -598.230318438327, -608.204638984026, -510.661773810653, -675.824542520294, -49777.3043814971, 0.000216911211583102, ]
  - [232700, -47491.7708838229, 2389.61649876458, -45102.1543850584, 1585.0876919802, 53.6084, 53.6084, 53.6084, 154063.065938641, -159.818224200635, -580.796045786583, -195.376415183857, 296.717788368536, -49784.5304758911, 0.000203362326959055, ]
  - [232800, -47508.5455442049, 2395.06052047871, -45113.4850237262, 1588.69883703984, 53.6084, 53.6084, 53.6084, 154063.065938641, -1831.58934991919, -1906.61207347763, -1488.02284658348, -2100.13312969645, -49798.3293326303, 0.000190480389068545, ]
  - [232900, -47485.9061487193, 2401.80884035583, -45084.0973083634, 1593.17515312834, 53.6084, 53.6084, 53.6084, 154063.065938641, 486.126124841634, 693.592336242388, 565.154013315555, 199.632024966965, -49809.372701564, 0.000178241940897418, ]
  - [233000, -47495.6263499873, 2399.63467310741, -45095.9916768799, 1591.73297788911, 53.6084, 53.6084, 53.6084, 154063.065938641, -313.522234213479, -1618.78650097984, 1.85117805442318, 676.368620284982, -49809.4674053407, 0.000166623985720989, ]
  - [233100, -47487.2615286463, 2419.33613927291, -45067.9253893734, 1604.80141441398, 53.6084, 53.6084, 53.6084, 154063.065938641, 600.814833619933, 526.605257786016, -204.743651282388, 1480.58289435617, -49794.3601146474, 0.000155603987394581, ]
  - [233200, -47498.9680141517, 2404.64667619992, -45094.3213379517, 1595.05755504122, 53.6084, 53.6084, 53.6084, 154063.065938641, -710.916736298484, -794.277826843147, -915.447116785386, -423.02526526691, -49811.364540328, 0.000145159870504403, ]
  - [233300, -47481.6705543113, 2378.62396515202, -45103.0465891593, 1577.79609111373, 53.6084, 53.6084, 53.6084, 154063.065938641, -194.013538105054, -806.559507540226, 23.8470410070217, 200.67185221804, -49810.0855225046, 0.000135270020376871, ]
  - [233400, -47498.8818203567, 2407.934861846, -45090.9469585107, 1597.23868435601, 53.6084, 53.6084, 53.6084, 154063.065938641, -925.893931445268, -1257.60365482381, -2554.78160108586, 1034.70346157386, -49829.349539953, 0.000125913282944476, ]
  - [233500, -47502.3954174997, 2428.52220214109, -45073.8732153586, 1610.89474160587, 53.6084, 53.6084, 53.6084, 154063.065938641, -590.435166681762, -386.684910244725, -240.186779283007, -1144.43381051757, -49827.3387015163, 0.000117068964466275, ]
  - [233600, -47486.6431472219, 2415.39215445884, -45071.250992763, 1602.18527839828, 53.6084, 53.6084, 53.6084, 154063.065938641, 308.365934568105, -967.840150610612, 92.5506263336348, 1800.38732798128, -49808.6668619703, 0.000108716831101108, ]
  - [233700, -47481.9041850669, 2378.5189640954, -45103.3852209715, 1577.72644149313, 53.6084, 53.6084, 53.6084, 154063.065938641, 374.59225432217, 644.608828887508, -151.668060700527, 630.835994779525, -49797.5006443716, 0.000100837108331576, ]
  - [233800, -47514.4052050153, 2396.34263231718, -45118.0625726981, 1589.54929136837, 53.6084, 53.6084, 53.6084, 154063.065938641, -2148.90931750931, -2347.49529847193, -1796.69506275206, -2302.53759130394, -49775.251168154, 9.34104802368709e-05, ]
  - [233900, -47501.8143103814, 2403.02948038645, -45098.784829995, 1593.98483179012, 53.6084, 53.6084, 53.6084, 154063.065938641, -1655.81162537688, -2855.18749310924, -1238.76537350935, -873.48200951205, -49719.8463763422, 8.64180886124633e-05, ]
  - [234000, -47500.3338687292, 2456.42464769451, -45043.9092210347, 1629.40307674908, 53.6084, 53.6084, 53.6084, 154063.065938641, -696.174515519764, -1114.4410955317, 146.689574062642, -1120.77202509025, -49728.2516060864, 7.98415319347196e-05, ]
  - [234100, -47472.4526221727, 2426.18473116765, -45046.2678910051, 1609.34424324253, 53.6084, 53.6084, 53.6084, 154063.065938641, 1913.1317680684, 1958.79560446304, 2666.42740252671, 1114.17229721546, -49767.0470047754, 7.36628641684439e-05, ]
  - [234200, -47483.6304650574, 2401.08177148069, -45082.5486935767, 1592.69287158827, 53.6084, 53.6084, 53.6084, 154063.065938641, 457.415666178603, 1377.35743256622, 1203.32847448342, -1208.43890851383, -49768.3914409854, 6.78645934153684e-05, ]
  - [234300, -47485.8873368516, 2397.92902030549, -45087.9583165461, 1590.60157907909, 53.6084, 53.6084, 53.6084, 154063.065938641, -135.714372863653, -274.410753437787, -439.044642309042, 306.312277155873, -49744.3766389185, 6.24296804015905e-05, ]
  - [234400, -47489.5260919503, 2418.86127972986, -45070.6648122204, 1604.48642913602, 53.6084, 53.6084, 53.6084, 154063.065938641, -333.030722757682, 158.839102459344, 56.395088026369, -1214.32635875876, -49763.2583424455, 5.73415368019447e-05, ]
  - [234500, -47472.8118939166, 2400.6924910486, -45072.119402868, 1592.43465290675, 53.6084, 53.6084, 53.6084, 154063.065938641, 1534.88026888458, 3055.16539470233, -216.349975344955, 1765.82538729636, -49765.9271084008, 5.25840233992875e-05, ]
  - [234600, -47493.9736352729, 2405.49905677798, -45088.4745784949, 1595.62295872163, 53.6084, 53.6084, 53.6084, 154063.065938641, 81.4392920106381, 281.884813934299, -514.220024403704, 476.653086501319, -49776.836437712, 4.81414480766631e-05, ]
  - [234700, -47479.5671671253, 2412.30285633205, -45067.2643107933, 1600.13607575837, 53.6084, 53.6084, 53.6084, 154063.065938641, 1453.362861619, 3272.83918668937, -46.5131991845921, 1133.76259735222, -49799.6893518958, 4.39985636403036e-05, ]
  - [234800, -47489.0500110518, 2420.19203305885, -45068.8579779929, 1605.36914848614, 53.6084, 53.6084, 53.6084, 154063.065938641, -471.011604930589, -432.978611407737, -658.059764749958, -321.996438634076, -49818.517749553, 4.01405654714093e-05, ]
  - [234900, -47474.6377356393, 2400.652568376, -45073.9851672633, 1592.40817127801, 53.6084, 53.6084, 53.6084, 154063.065938641, 1516.31383311893, 1549.47780007141, 718.453622014967, 2281.0100772704, -49813.7497321081, 3.65530890046418e-05, ]
  - [235000, -47489.8476002287, 2438.64328526821, -45051.2043149605, 1617.60828928292, 53.6084, 53.6084, 53.6084, 154063.065938641, -117.167792967089, 499.986971574143, -664.658265341944, -186.832085133462, -49815.6883788986, 3.32222070312498e-05, ]
  - [235100, -47494.857778194, 2446.37265711176, -45048.4851210822, 1622.73535974895, 53.6084, 53.6084, 53.6084, 154063.065938641, -821.615177073349, -2430.86329039549, -89.4861429006863, 55.503902076127, -49844.9677878044, 3.01344268247407e-05, ]
  - [235200, -47490.3744976907, 2410.82572472906, -45079.5487729617, 1599.15626032583, 53.6084, 53.6084, 53.6084, 154063.065938641, 286.620464451587, -1148.60026996004, 741.250093139386, 1267.21157017542, -49829.7525812648, 2.72766870869938e-05, ]
  - [235300, -47505.0302911605, 2433.30355643965, -45071.7267347209, 1614.06632409769, 53.6084, 53.6084, 53.6084, 154063.065938641, -1272.11422024535, -1192.9452186171, -1508.36538707007, -1115.03205504887, -49883.3986584253, 2.46363547127045e-05, ]
  - [235400, -47534.5740609087, 2420.28576445707, -45114.2882964516, 1605.43132268261, 53.6084, 53.6084, 53.6084, 154063.065938641, -4082.23221354925, -3218.87230882465, -4595.36707569057, -4432.45725613253, -49954.1535564473, 2.22012213700348e-05, ]
  - [235500, -47512.851545188, 2401.70689588618, -45111.1446493018, 1593.10753101233, 53.6084, 53.6084, 53.6084, 154063.065938641, -1947.66683231248, -1450.71386151466, -3045.47376527502, -1346.81287014777, -49990.374210856, 1.99594998953343e-05, ]
  - [235600, -47511.3301265951, 2403.95790516235, -45107.3722214327, 1594.60067733938, 53.6084, 53.6084, 53.6084, 154063.065938641, -1955.14171824891, -1799.45693236325, -2727.33929955199, -1338.62892283148, -49988.3500667663, 1.78998204997852e-05, ]
  - [235700, -47479.2235058071, 2409.12887501008, -45070.094630797, 1598.0307008036, 53.6084, 53.6084, 53.6084, 154063.065938641, 1399.09020849401, 1193.98194509392, 1031.74642013931, 1971.54226024881, -49976.7082216914, 1.6011226785813e-05, ]
  - [235800, -47501.2606961059, 2418.43746045905, -45082.8232356469, 1604.20530004684, 53.6084, 53.6084, 53.6084, 154063.065938641, -1685.68651072184, -838.535343545745, -1124.90120828803, -3093.62298033176, -49961.9777428795, 1.42831715710918e-05, ]
  - [235900, -47486.4100506995, 2408.65895989171, -45077.7510908078, 1597.71899527645, 53.6084, 53.6084, 53.6084, 154063.065938641, -345.306135860258, -538.284790214607, 857.883417983628, -1355.51703534979, -49948.3775639873, 1.27055125179639e-05, ]
  - [236000, -47445.3684830189, 2390.02193059019, -45055.3465524287, 1585.35662425325, 53.6084, 53.6084, 53.6084, 154063.065938641, 4267.00042360345, 3309.36033507609, 4132.40030999612, 5359.24062573817, -49932.3580562384, 1.12685075660799e-05, ]
  - [236100, -47485.1569744023, 2433.21790604309, -45051.9390683592, 1614.00951021585, 53.6084, 53.6084, 53.6084, 154063.065938641, 434.237932214514, 490.646698901657, -167.225489146152, 979.29258688804, -49906.8614414252, 9.96281016605479e-06, ]
  - [236200, -47489.9123984572, 2414.74022526119, -45075.172173196, 1601.75283873787, 53.6084, 53.6084, 53.6084, 154063.065938641, -1064.73883542119, -567.910653369272, 35.7932498017281, -2662.09910269601, -49915.2564932609, 8.77946431192305e-06, ]
  - [236300, -47485.9155473838, 2408.64586658465, -45077.2696807992, 1597.71031018415, 53.6084, 53.6084, 53.6084, 154063.065938641, 650.520047079634, 900.561715598453, 427.657674448904, 623.340751191552, -49831.6374391822, 7.70989937016554e-06, ]
  - [236400, -47466.7906890765, 2385.65209654487, -45081.1385925316, 1582.45801262882, 53.6084, 53.6084, 53.6084, 154063.065938641, 1931.17498764656, 2030.29949385556, 1584.11115161553, 2179.1143174686, -49747.4610480606, 6.74592470306788e-06, ]
  - [236500, -47500.32376665, 2389.82300963177, -45110.5007570183, 1585.22467539742, 53.6084, 53.6084, 53.6084, 154063.065938641, -563.865488993278, 131.367966737633, -758.673273646744, -1064.29116007072, -49760.3162648685, 5.87972408415909e-06, ]
  - [236600, -47505.9595394576, 2390.91634662277, -45115.0431928348, 1585.94991101934, 53.6084, 53.6084, 53.6084, 154063.065938641, -1597.64579638886, -1025.32343382525, -1478.1003446682, -2289.51361067314, -49767.7166686775, 5.10384990346715e-06, ]
  - [236700, -47481.7302745975, 2429.71734938631, -45052.0129252112, 1611.68751031561, 53.6084, 53.6084, 53.6084, 154063.065938641, 1461.82749436811, 1007.08716026267, 1264.37805101599, 2114.01727182566, -49721.460170269, 4.41121716031669e-06, ]
  - [236800, -47488.4662070148, 2393.96507888706, -45094.5011281277, 1587.97220538781, 53.6084, 53.6084, 53.6084, 154063.065938641, 524.537929594623, -29.6896453675964, 551.834412036377, 1051.46902211509, -49802.5508465472, 3.79509724138197e-06, ]
  - [236900, -47481.1661106068, 2399.75505128891, -45081.4110593179, 1591.812827511, 53.6084, 53.6084, 53.6084, 154063.065938641, 1312.80273527046, 1798.04944850494, 696.136225765212, 1444.22253154123, -49854.6916161956, 3.24911148169665e-06, ]
  - [237000, -47475.3219828849, 2392.64918619098, -45082.672796694, 1587.09934343796, 53.6084, 53.6084, 53.6084, 154063.065938641, 1381.90069645766, 1770.51382621048, 1057.98190983184, 1317.20635333066, -49863.893316651, 2.76722450630996e-06, ]
  - [237100, -47493.4109508566, 2403.72457112189, -45089.6863797347, 1594.44590149319, 53.6084, 53.6084, 53.6084, 154063.065938641, -165.920415805081, -276.667080149548, 837.951374016459, -1059.04554128215, -49819.0773904543, 2.34373735026696e-06, ]
  - [237200, -47468.6143972384, 2396.53284857773, -45072.0815486606, 1589.6754661975, 53.6084, 53.6084, 53.6084, 154063.065938641, 2082.48092015422, 1450.74779693453, 2508.16194982397, 2288.53301370414, -49818.1027287163, 1.97328035457889e-06, ]
  - [237300, -47482.8740928488, 2427.64923490328, -45055.2248579455, 1610.31568231963, 53.6084, 53.6084, 53.6084, 154063.065938641, 808.029109396777, 272.446523000521, 509.132369280211, 1642.50843590959, -49841.5503055291, 1.65080583583743e-06, ]
  - [237400, -47482.7175717678, 2403.75934426874, -45078.958227499, 1594.46896732284, 53.6084, 53.6084, 53.6084, 154063.065938641, 158.707884554224, 226.511632215798, -15.7439572624467, 265.355978709333, -49829.3549640061, 1.37158052711493e-06, ]
  - [237500, -47519.973135715, 2392.85859392386, -45127.1145417911, 1587.23824841295, 53.6084, 53.6084, 53.6084, 154063.065938641, -2556.83274605942, -3651.12125546158, -1370.33759621294, -2649.03938650374, -49865.5914304776, 1.13117778778074e-06, ]
  - [237600, -47522.0178509369, 2409.49794562652, -45112.5199053104, 1598.27551384866, 53.6084, 53.6084, 53.6084, 154063.065938641, -3152.16192312248, -2513.50879585256, -2516.82327395292, -4426.15369956197, -49881.9112208031, 9.25469579851505e-07, ]
  - [237700, -47498.6042314306, 2391.79443927651, -45106.8097921541, 1586.53237011207, 53.6084, 53.6084, 53.6084, 154063.065938641, -1583.77997352827, -1929.64997587449, -1004.02818583885, -1817.66175887147, -49904.3275912284, 7.50618208481688e-07, ]
  - [237800, -47507.5592432028, 2390.1133487114, -45117.4458944915, 1585.41726399976, 53.6084, 53.6084, 53.6084, 154063.065938641, -1918.62394835247, -3465.445897361, -1156.96422167107, -1133.46172602533, -49878.7296108221, 6.03067824188189e-07, ]
  - [237900, -47492.053291908, 2428.0746270274, -45063.9786648806, 1610.59785471866, 53.6084, 53.6084, 53.6084, 154063.065938641, 386.691255704914, 485.440072900112, 349.665021873439, 324.968672341188, -49771.9214447409, 4.79535684391034e-07, ]
  - [238000, -47492.3831629903, 2416.58390775399, -45075.7992552363, 1602.97579582273, 53.6084, 53.6084, 53.6084, 154063.065938641, -466.603873668048, -1353.24664852161, 435.486910571409, -482.051883053945, -49801.0621296051, 3.77003171839991e-07, ]
  - [238100, -47481.8556876356, 2434.47674819739, -45047.3789394382, 1614.84452922663, 53.6084, 53.6084, 53.6084, 154063.065938641, 375.303136807388, 566.521748733864, 261.94163827236, 297.446023415946, -49822.970336021, 2.92706567484834e-07, ]
  - [238200, -47499.6787437987, 2428.50552479582, -45071.1732190028, 1610.88367913843, 53.6084, 53.6084, 53.6084, 154063.065938641, -507.913617154557, -1650.68154201097, 810.195700803281, -683.25501025598, -49810.75061193, 2.24127575334843e-07, ]
  - [238300, -47483.2240367945, 2462.01327285307, -45021.2107639414, 1633.11014060577, 53.6084, 53.6084, 53.6084, 154063.065938641, 871.898826037922, 438.885749941716, 1081.55766631756, 1095.25306185449, -49761.6649170148, 1.68983596840973e-07, ]
  - [238400, -47474.5688612824, 2397.96878119323, -45076.6000800892, 1590.62795339221, 53.6084, 53.6084, 53.6084, 154063.065938641, 1308.02791792475, 158.898780477567, 1474.7409383545, 2290.44403494219, -49765.7632993449, 1.25217752321901e-07, ]
  - [238500, -47513.1550520205, 2432.11452853787, -45081.0405234826, 1613.27761448947, 53.6084, 53.6084, 53.6084, 154063.065938641, -2030.47575743575, -2977.70976281545, -1453.84810252235, -1659.86940696944, -49777.1021931468, 9.09886469429854e-08, ]
  - [238600, -47500.2323401432, 2399.0853305407, -45101.1470096025, 1591.3685863051, 53.6084, 53.6084, 53.6084, 154063.065938641, -1338.0478346503, -1139.54764888756, -1261.08292973227, -1613.51292533109, -49803.3123498622, 6.46598787448784e-08, ]
  - [238700, -47515.0764759264, 2400.40797443533, -45114.6685014911, 1592.24592648053, 53.6084, 53.6084, 53.6084, 154063.065938641, -2636.41037477808, -3207.16149830264, -2219.8785134405, -2482.19111259108, -49838.3032261249, 4.47892862063161e-08, ]
  - [238800, -47490.3408688793, 2418.15541010781, -45072.1854587715, 1604.01820954905, 53.6084, 53.6084, 53.6084, 154063.065938641, 244.837728434091, -653.878438240274, 483.289073041671, 905.10255050088, -49833.8027193447, 3.01179328132691e-08, ]
  - [238900, -47489.2835057302, 2406.06476559949, -45083.2187401307, 1595.99820641961, 53.6084, 53.6084, 53.6084, 154063.065938641, -117.010835113701, -155.275202568551, 461.041774416865, -656.799077189413, -49857.0711380014, 1.95588260943479e-08, ]
  - [239000, -47493.6402571849, 2399.51044946354, -45094.1298077213, 1591.65057748342, 53.6084, 53.6084, 53.6084, 154063.065938641, -257.559761855642, 385.553245164463, -272.181062482477, -886.051468248906, -49874.8061808728, 1.21853685699994e-08, ]
  - [239100, -47476.5684080905, 2413.94188165844, -45062.6265264321, 1601.22327902846, 53.6084, 53.6084, 53.6084, 154063.065938641, 1378.72820303978, 1413.84274372762, 1400.01467054334, 1322.32719484836, -49858.5235390573, 7.21953805066191e-09, ]
  - [239200, -47496.6391358215, 2440.76130193608, -45055.8778338854, 1619.01321854809, 53.6084, 53.6084, 53.6084, 154063.065938641, -373.389988782406, -194.011259842377, 534.444592139473, -1460.60329864431, -49834.3225646209, 4.01979470665194e-09, ]
  - [239300, -47505.3757757668, 2401.30073644268, -45104.0750393241, 1592.83811609357, 53.6084, 53.6084, 53.6084, 154063.065938641, -1628.16749109761, -1111.4776217046, -1394.55258319404, -2378.4722683942, -49866.4118162945, 2.06871232013228e-09, ]
  - [239400, -47489.5377905423, 2405.22007226964, -45084.3177182726, 1595.43790186809, 53.6084, 53.6084, 53.6084, 154063.065938641, 71.8699470956311, 145.008601851182, -425.425585692, 496.026825127716, -49902.1028406879, 9.60331117066315e-10, ]
  - [239500, -47488.9103359177, 2430.21916299901, -45058.6911729187, 1612.02037484914, 53.6084, 53.6084, 53.6084, 154063.065938641, 520.828588100232, 600.406358886049, 831.464765690617, 130.614639724029, -49952.1248527402, 3.87229564589803e-10, ]
  - [239600, -47489.3776589727, 2442.86197806979, -45046.5156809029, 1620.40664543734, 53.6084, 53.6084, 53.6084, 154063.065938641, -517.676618942968, -186.773320493699, -677.922185943474, -688.334350391742, -50001.8696063779, 1.27312506734493e-10, ]
  - [239700, -47506.8690720927, 2398.00465657108, -45108.8644155216, 1590.65175035708, 53.6084, 53.6084, 53.6084, 154063.065938641, -2386.66024773033, -3752.19329742627, -1573.33821905694, -1834.44922670777, -50012.9231816383, 3.03129989146573e-11, ]
  - [239800, -47483.2505644776, 2404.857557017, -45078.3930074606, 1595.19743714691, 53.6084, 53.6084, 53.6084, 154063.065938641, 532.918051372794, 254.901480620179, 805.492493339711, 538.360180158489, -49984.0495271901, 4.00518903939475e-12, ]
  - [239900, -47497.0042671659, 2400.28130709815, -45096.7229600678, 1592.16190511675, 53.6084, 53.6084, 53.6084, 154063.065938641, -877.165489551242, -1492.44867034861, 675.853392696052, -1814.90119100117, -50013.3609256756, 1.25580539685001e-13, ]
  - [240000, -47505.3358413331, 2397.13389585585, -45108.2019454772, 1590.07415470812, 53.6084, 53.6084, 53.6084, 154063.065938641, -2285.70078832955, -1868.42872121367, -1154.90820610464, -3833.76543767035, -50048.1403042966, 0, ]
...
Loop time of 133.626 on 64 procs for 100000 steps with 11664 atoms

Performance: 64.658 ns/day, 0.371 hours/ns, 748.358 timesteps/s, 8.729 Matom-step/s
71.1% CPU use with 64 MPI tasks x 1 OpenMP threads

MPI task timing breakdown:
Section |  min time  |  avg time  |  max time  |%varavg| %total
---------------------------------------------------------------
Pair    | 65.929     | 67.862     | 69.893     |   9.6 | 50.79
Neigh   | 0.62215    | 0.63847    | 0.68227    |   1.6 |  0.48
Comm    | 18.555     | 20.368     | 22.422     |  16.9 | 15.24
Output  | 0.35859    | 0.40219    | 0.40364    |   0.9 |  0.30
Modify  | 13.152     | 14.061     | 42.927     |  97.1 | 10.52
Other   |            | 30.29      |            |       | 22.67

Nlocal:         182.25 ave         195 max         171 min
Histogram: 5 2 7 11 7 14 9 5 1 3
Nghost:        1261.59 ave        1277 max        1243 min
Histogram: 2 3 4 7 10 13 7 8 5 5
Neighs:         6982.7 ave        7582 max        6469 min
Histogram: 4 3 10 9 12 11 7 4 1 3

Total # of neighbors = 446893
Ave neighs/atom = 38.313872
Neighbor list builds = 1688
Dangerous builds = 0
#------------------------------------------------------------------------------#
Total wall time: 0:05:24
