LAMMPS (2 Aug 2023)
OMP_NUM_THREADS environment is not set. Defaulting to 1 thread. (src/comm.cpp:98)
  using 1 OpenMP thread(s) per MPI task
#--------------------------- Simulation variables -----------------------------#
# Initalizes the random number generator.
variable RND equal round(random(0,999,${RANDOM}))
variable RND equal round(random(0,999,1))

# Simulation control parameters.
variable t_eq equal 20000 # Equilibration time.
variable t equal 100000 # Switching time.

#---------------------------- Atomic setup ------------------------------------#
units            metal
# Create atoms.
lattice          bcc ${a}
lattice          bcc 2.9373500000000003
Lattice spacing in x,y,z = 2.93735 2.93735 2.93735
region           sim_box block 0 18 0 18 0 18
create_box       1 sim_box
Created orthogonal box = (0 0 0) to (52.8723 52.8723 52.8723)
  4 by 4 by 4 MPI processor grid
create_atoms     1 box
Created 11664 atoms
  using lattice units in orthogonal box = (0 0 0) to (52.8723 52.8723 52.8723)
  create_atoms CPU = 0.001 seconds

# Define interatomic potential.
pair_style       eam
pair_coeff       * * ../Fe.eam
#----------------------------- Run simulation ---------------------------------#
# Initial temperature to accelerate equilibration.
velocity all create ${T} ${RND} mom yes rot yes dist gaussian
velocity all create 800 ${RND} mom yes rot yes dist gaussian
velocity all create 800 80 mom yes rot yes dist gaussian

# Integrator, Frenkel-Ladd modifier, and thermostat.
fix fe all nve
fix fti all ti/spring ${k} ${t} ${t_eq} function 2
fix fti all ti/spring 3.8533959298020726 ${t} ${t_eq} function 2
fix fti all ti/spring 3.8533959298020726 100000 ${t_eq} function 2
fix fti all ti/spring 3.8533959298020726 100000 20000 function 2
fix ft all langevin ${T} ${T} 0.1 ${RND} zero yes
fix ft all langevin 800 ${T} 0.1 ${RND} zero yes
fix ft all langevin 800 800 0.1 ${RND} zero yes
fix ft all langevin 800 800 0.1 178 zero yes
compute tcom all temp/com
fix_modify ft temp tcom

# Setup thermo output.
variable dE equal pe-f_fti
variable lambda equal f_fti[1]

thermo_style custom step pe ke etotal temp lx ly lz vol press pxx pyy pzz v_dE v_lambda
thermo 100
thermo_modify line yaml
thermo_modify flush yes

# Forward integration.
run ${t_eq}
run 20000

CITE-CITE-CITE-CITE-CITE-CITE-CITE-CITE-CITE-CITE-CITE-CITE-CITE

Your simulation uses code contributions which should be cited:

- ti/spring command: doi:10.1016/j.commatsci.2015.10.050

@article{freitas2016,
  author={Freitas, Rodrigo and Asta, Mark and de Koning, Maurice},
  title={Nonequilibrium Free-Energy Calculation of Solids Using {LAMMPS}},
  journal={Computational Materials Science},
  volume={112},
  pages={333--341},
  year={2016},
  publisher={Elsevier}
}

CITE-CITE-CITE-CITE-CITE-CITE-CITE-CITE-CITE-CITE-CITE-CITE-CITE

Neighbor list info ...
  update: every = 1 steps, delay = 0 steps, check = yes
  max neighbors/atom: 2000, page size: 100000
  master list distance cutoff = 6.409104
  ghost atom cutoff = 6.409104
  binsize = 3.204552, bins = 17 17 17
  1 neighbor lists, perpetual/occasional/extra = 1 0 0
  (1) pair eam, perpetual
      attributes: half, newton on
      pair build: half/bin/atomonly/newton
      stencil: half/bin/3d
      bin: standard
Per MPI rank memory allocation (min/avg/max) = 3.724 | 3.732 | 3.736 Mbytes
---
keywords: ['Step', 'PotEng', 'KinEng', 'TotEng', 'Temp', 'Lx', 'Ly', 'Lz', 'Volume', 'Press', 'Pxx', 'Pyy', 'Pzz', 'v_dE', 'v_lambda', ]
data:
  - [0, -49705.5180918947, 1206.048856908, -48499.4692349867, 800, 52.8723, 52.8723, 52.8723, 147803.462876669, -101312.464755973, -101216.621675417, -101372.89741202, -101347.875180484, -49705.5180918947, 0, ]
  - [100, -48919.3063698231, 1018.84602206644, -47900.4603477566, 675.824045588668, 52.8723, 52.8723, 52.8723, 147803.462876669, -13518.5374786466, -13654.0411221383, -12897.2114850219, -14004.3598287798, -48919.3063698231, 0, ]
  - [200, -48847.9427079844, 1162.39281615783, -47685.5498918266, 771.041942123579, 52.8723, 52.8723, 52.8723, 147803.462876669, -4944.84173874138, -5081.46432767502, -5105.20839479451, -4647.85249375461, -48847.9427079844, 0, ]
  - [300, -48800.9546113908, 1175.59405611464, -47625.3605552761, 779.798628807501, 52.8723, 52.8723, 52.8723, 147803.462876669, -397.809671571537, -606.005100746306, -104.317742229426, -483.106171738881, -48800.9546113908, 0, ]
  - [400, -48801.1672515551, 1195.10744568601, -47606.0598058691, 792.742309793291, 52.8723, 52.8723, 52.8723, 147803.462876669, -126.082392021374, -377.385135611496, -432.278321189998, 431.416280737374, -48801.1672515551, 0, ]
  - [500, -48796.8936838416, 1201.86215262694, -47595.0315312147, 797.22286256841, 52.8723, 52.8723, 52.8723, 147803.462876669, 814.281757790824, 590.368930852274, 460.797388303619, 1391.67895421658, -48796.8936838416, 0, ]
  - [600, -48818.0651849093, 1203.74952307134, -47614.3156618379, 798.474798878343, 52.8723, 52.8723, 52.8723, 147803.462876669, -1670.28912157276, -2053.37968830219, -1854.58808804102, -1102.89958837508, -48818.0651849093, 0, ]
  - [700, -48812.8807015332, 1197.05901013177, -47615.8216914014, 794.036827463668, 52.8723, 52.8723, 52.8723, 147803.462876669, -1065.15324521439, -865.204237317009, -1215.93501302311, -1114.32048530304, -48812.8807015332, 0, ]
  - [800, -48794.3764545685, 1204.85006692601, -47589.5263876425, 799.204814979013, 52.8723, 52.8723, 52.8723, 147803.462876669, 465.96483957357, 413.23901736645, 620.377887533678, 364.277613820579, -48794.3764545685, 0, ]
  - [900, -48807.0951268123, 1214.50005258028, -47592.595074232, 805.605872845945, 52.8723, 52.8723, 52.8723, 147803.462876669, -276.175019795601, -422.478606194185, 7.73604485995692, -413.782498052582, -48807.0951268123, 0, ]
  - [1000, -48793.3316560403, 1204.9341263884, -47588.3975296519, 799.260573557557, 52.8723, 52.8723, 52.8723, 147803.462876669, 1258.79561461762, 1349.33288184163, 1290.61232497092, 1136.4416370403, -48793.3316560403, 0, ]
  - [1100, -48796.1057473856, 1206.10727214895, -47589.9984752367, 800.038748175491, 52.8723, 52.8723, 52.8723, 147803.462876669, 121.021182438612, -76.2244604280889, -189.076991541659, 628.36499928559, -48796.1057473856, 0, ]
  - [1200, -48805.2897898512, 1216.45809116214, -47588.8316986891, 806.904684959993, 52.8723, 52.8723, 52.8723, 147803.462876669, -83.8993733433009, -168.33745972963, 16.8803344880609, -100.240994788332, -48805.2897898512, 0, ]
  - [1300, -48791.5129089114, 1226.69388999298, -47564.8190189184, 813.694326206925, 52.8723, 52.8723, 52.8723, 147803.462876669, 1846.28132818051, 2001.32867986178, 2215.61360042125, 1321.90170425851, -48791.5129089114, 0, ]
  - [1400, -48798.2860887236, 1200.06400995427, -47598.2220787694, 796.0301130957, 52.8723, 52.8723, 52.8723, 147803.462876669, 27.2934454344376, -186.130452894, 179.838982240608, 88.1718069567056, -48798.2860887236, 0, ]
  - [1500, -48795.1982596749, 1202.60417700023, -47592.5940826746, 797.715064435053, 52.8723, 52.8723, 52.8723, 147803.462876669, 890.749280277061, 1241.65079459775, 283.229882857089, 1147.36716337635, -48795.1982596749, 0, ]
  - [1600, -48805.5411654918, 1196.75015199337, -47608.7910134984, 793.83195474288, 52.8723, 52.8723, 52.8723, 147803.462876669, -543.24024804962, -782.743334864834, -524.281366089247, -322.696043194779, -48805.5411654918, 0, ]
  - [1700, -48803.8304895442, 1196.66586756009, -47607.1646219841, 793.776046935965, 52.8723, 52.8723, 52.8723, 147803.462876669, 74.7042489775179, 781.009136840795, -527.005474107451, -29.890915800786, -48803.8304895442, 0, ]
  - [1800, -48805.6168095442, 1207.90996537788, -47597.7068441664, 801.234516137034, 52.8723, 52.8723, 52.8723, 147803.462876669, -408.017168700918, -279.597292577118, -718.414825810001, -226.039387715639, -48805.6168095442, 0, ]
  - [1900, -48784.7595673498, 1202.79739429471, -47581.9621730551, 797.843229919142, 52.8723, 52.8723, 52.8723, 147803.462876669, 2050.08308147844, 2452.21827024147, 1881.14186054385, 1816.88911365001, -48784.7595673498, 0, ]
  - [2000, -48810.9992200652, 1212.79537092798, -47598.2038491372, 804.475118221846, 52.8723, 52.8723, 52.8723, 147803.462876669, -991.668467496199, -965.588418424334, -1349.09962082295, -660.317363241311, -48810.9992200652, 0, ]
  - [2100, -48814.8022161968, 1193.9428016716, -47620.8594145252, 791.969774579487, 52.8723, 52.8723, 52.8723, 147803.462876669, -1327.75538242442, -1650.97918751531, -1344.23756153579, -988.049398222174, -48814.8022161968, 0, ]
  - [2200, -48796.4230535476, 1205.37975808611, -47591.0432954615, 799.556171332156, 52.8723, 52.8723, 52.8723, 147803.462876669, 329.372544699962, 142.466976074819, 485.125116267555, 360.52554175751, -48796.4230535476, 0, ]
  - [2300, -48804.8001256223, 1205.88896121239, -47598.9111644099, 799.89393750033, 52.8723, 52.8723, 52.8723, 147803.462876669, -888.605706534414, -1092.82084217534, -1183.11428044335, -389.881996984551, -48804.8001256223, 0, ]
  - [2400, -48808.1680337534, 1197.21893810616, -47610.9490956473, 794.142911374602, 52.8723, 52.8723, 52.8723, 147803.462876669, -552.996735153956, 315.216136047344, -930.215847108634, -1043.99049440057, -48808.1680337534, 0, ]
  - [2500, -48800.9121655021, 1206.6221140212, -47594.2900514809, 800.380254653811, 52.8723, 52.8723, 52.8723, 147803.462876669, 177.344107295831, 374.105917354132, -392.12897909777, 550.055383631128, -48800.9121655021, 0, ]
  - [2600, -48813.0272132605, 1186.15024416391, -47626.8769690966, 786.800791606336, 52.8723, 52.8723, 52.8723, 147803.462876669, -1876.81636786796, -1917.15298571242, -1494.46398467334, -2218.83213321812, -48813.0272132605, 0, ]
  - [2700, -48794.1452193849, 1183.0844481558, -47611.0607712291, 784.767178463349, 52.8723, 52.8723, 52.8723, 147803.462876669, 1003.51771159447, 782.820914285161, 1489.11461415832, 738.617606339932, -48794.1452193849, 0, ]
  - [2800, -48807.1694893741, 1204.21148887867, -47602.9580004954, 798.781231444275, 52.8723, 52.8723, 52.8723, 147803.462876669, -595.924693847965, -925.670659711778, 176.062134499512, -1038.16555633163, -48807.1694893741, 0, ]
  - [2900, -48801.0295702486, 1191.63762414996, -47609.3919460987, 790.440697206918, 52.8723, 52.8723, 52.8723, 147803.462876669, 245.549707069468, -152.564323917446, 755.534007657616, 133.679437468235, -48801.0295702486, 0, ]
  - [3000, -48807.3904744173, 1191.32782359928, -47616.0626508181, 790.235199362349, 52.8723, 52.8723, 52.8723, 147803.462876669, -152.861755904735, -292.679825623317, 277.015033310343, -442.920475401231, -48807.3904744173, 0, ]
  - [3100, -48804.5647154535, 1220.20657447193, -47584.3581409815, 809.391140322605, 52.8723, 52.8723, 52.8723, 147803.462876669, -12.785317113368, -189.318667679378, 124.030449757857, 26.9322665814201, -48804.5647154535, 0, ]
  - [3200, -48801.0965569282, 1222.50052767525, -47578.5960292529, 810.912772346176, 52.8723, 52.8723, 52.8723, 147803.462876669, 931.345285841968, 582.848365465526, 1231.70061824091, 979.486873819474, -48801.0965569282, 0, ]
  - [3300, -48808.2900897244, 1207.69503356518, -47600.5950561592, 801.091946912596, 52.8723, 52.8723, 52.8723, 147803.462876669, -526.959407619901, -523.028511990904, -690.656634190564, -367.193076678233, -48808.2900897244, 0, ]
  - [3400, -48796.1811310307, 1205.75836470892, -47590.4227663218, 799.807309830002, 52.8723, 52.8723, 52.8723, 147803.462876669, 663.815512917305, 820.241099738978, 616.041737648606, 555.163701364329, -48796.1811310307, 0, ]
  - [3500, -48782.0327548469, 1194.23435548007, -47587.7983993668, 792.163168939463, 52.8723, 52.8723, 52.8723, 147803.462876669, 1980.74413691994, 1949.79286130869, 1920.60535550088, 2071.83419395026, -48782.0327548469, 0, ]
  - [3600, -48798.4106933764, 1203.26018073068, -47595.1505126457, 798.150206826964, 52.8723, 52.8723, 52.8723, 147803.462876669, 1119.91652279936, 940.990422571412, 923.779358046156, 1494.97978778051, -48798.4106933764, 0, ]
  - [3700, -48795.7261311817, 1218.06864787478, -47577.6574833069, 807.973004342525, 52.8723, 52.8723, 52.8723, 147803.462876669, 651.742897802597, 438.037164543118, 288.977168440194, 1228.21436042448, -48795.7261311817, 0, ]
  - [3800, -48790.9045667117, 1209.0526269236, -47581.8519397881, 801.992469872774, 52.8723, 52.8723, 52.8723, 147803.462876669, 1092.00705832646, 802.367511948198, 1390.34884624403, 1083.30481678715, -48790.9045667117, 0, ]
  - [3900, -48790.5293785271, 1209.46340824746, -47581.0659702796, 802.264950591278, 52.8723, 52.8723, 52.8723, 147803.462876669, 1704.93425972463, 1333.58509208605, 1560.02249958319, 2221.19518750465, -48790.5293785271, 0, ]
  - [4000, -48798.8237309501, 1199.67041913082, -47599.1533118193, 795.769035232263, 52.8723, 52.8723, 52.8723, 147803.462876669, 201.775733165032, -166.436803544299, 532.872748689254, 238.891254350142, -48798.8237309501, 0, ]
  - [4100, -48794.2540254782, 1200.83066766825, -47593.42335781, 796.538654824894, 52.8723, 52.8723, 52.8723, 147803.462876669, 947.363248225694, 1186.48922039526, 799.302200734007, 856.298323547812, -48794.2540254782, 0, ]
  - [4200, -48807.9854638116, 1214.21556548377, -47593.7698983278, 805.41716599887, 52.8723, 52.8723, 52.8723, 147803.462876669, -743.013782470363, -387.611145464857, -1029.81876941841, -811.611432527825, -48807.9854638116, 0, ]
  - [4300, -48809.0574104913, 1216.65001154929, -47592.4073989421, 807.031990175566, 52.8723, 52.8723, 52.8723, 147803.462876669, -896.045113063439, -702.10386510867, -1130.37989752533, -855.651576556324, -48809.0574104913, 0, ]
  - [4400, -48807.5492329369, 1194.44551791768, -47613.1037150193, 792.303237850532, 52.8723, 52.8723, 52.8723, 147803.462876669, -1054.34481400421, -983.716716117164, -569.651189458607, -1609.66653643685, -48807.5492329369, 0, ]
  - [4500, -48803.0582399348, 1219.40981620344, -47583.6484237314, 808.862632201946, 52.8723, 52.8723, 52.8723, 147803.462876669, -157.763142626606, 316.444004713049, -298.633313215079, -491.100119377781, -48803.0582399348, 0, ]
  - [4600, -48804.1694431274, 1220.88439235679, -47583.2850507706, 809.840752545843, 52.8723, 52.8723, 52.8723, 147803.462876669, -388.942806350423, -563.111821776187, -170.91725885701, -432.799338418073, -48804.1694431274, 0, ]
  - [4700, -48801.0954821308, 1207.12147440358, -47593.9740077273, 800.711491903123, 52.8723, 52.8723, 52.8723, 147803.462876669, 224.148919275616, 298.931520545704, 121.047997402163, 252.467239878982, -48801.0954821308, 0, ]
  - [4800, -48807.0960019722, 1210.61915182644, -47596.4768501457, 803.031581941157, 52.8723, 52.8723, 52.8723, 147803.462876669, -555.168765420608, -317.173211457156, -562.693258501733, -785.639826302931, -48807.0960019722, 0, ]
  - [4900, -48807.5690577487, 1197.00910585393, -47610.5599518948, 794.003724806143, 52.8723, 52.8723, 52.8723, 147803.462876669, -627.110027200756, -874.395708272104, -487.73079304552, -519.203580284646, -48807.5690577487, 0, ]
  - [5000, -48803.1261091395, 1209.69601667774, -47593.4300924618, 802.419245123515, 52.8723, 52.8723, 52.8723, 147803.462876669, 484.320356941711, 643.680301045218, 221.559554917316, 587.721214862592, -48803.1261091395, 0, ]
  - [5100, -48808.8628410067, 1204.51122957239, -47604.3516114343, 798.9800563539, 52.8723, 52.8723, 52.8723, 147803.462876669, -822.32417277759, -818.995111363585, -930.623596704116, -717.353810265067, -48808.8628410067, 0, ]
  - [5200, -48799.859154919, 1210.44430707646, -47589.4148478425, 802.915603389219, 52.8723, 52.8723, 52.8723, 147803.462876669, 220.3106171377, 173.706515358474, -43.2222755271194, 530.447611581747, -48799.859154919, 0, ]
  - [5300, -48798.6131260275, 1223.90432884841, -47574.7087971791, 811.843946014713, 52.8723, 52.8723, 52.8723, 147803.462876669, -178.405082040579, 66.5531306164977, -301.812786114306, -299.955590623929, -48798.6131260275, 0, ]
  - [5400, -48800.3209997629, 1224.36826824751, -47575.9527315154, 812.151687709552, 52.8723, 52.8723, 52.8723, 147803.462876669, 253.321874981605, 325.836010589117, 449.278492075989, -15.1488777202899, -48800.3209997629, 0, ]
  - [5500, -48804.491913019, 1207.57661874108, -47596.9152942779, 801.013399630918, 52.8723, 52.8723, 52.8723, 147803.462876669, -84.9642207565491, 440.075277986583, -35.2410137250106, -659.726926531219, -48804.491913019, 0, ]
  - [5600, -48786.3918615218, 1195.3615640378, -47591.030297484, 792.910872352152, 52.8723, 52.8723, 52.8723, 147803.462876669, 2120.07997956031, 1909.55943147068, 2486.29723460188, 1964.38327260838, -48786.3918615218, 0, ]
  - [5700, -48806.180908387, 1230.55547947488, -47575.6254289122, 816.255807500008, 52.8723, 52.8723, 52.8723, 147803.462876669, -101.19656875896, -31.1720593283196, 35.1729059102597, -307.59055285882, -48806.180908387, 0, ]
  - [5800, -48789.7056417554, 1208.38722261452, -47581.3184191409, 801.551091860415, 52.8723, 52.8723, 52.8723, 147803.462876669, 1001.85906454414, 1563.14187910157, 810.206099327206, 632.229215203638, -48789.7056417554, 0, ]
  - [5900, -48790.6148744279, 1204.54347461218, -47586.0713998157, 799.001445231875, 52.8723, 52.8723, 52.8723, 147803.462876669, 1666.35575051462, 2245.46199838896, 1383.50381466327, 1370.10143849162, -48790.6148744279, 0, ]
  - [6000, -48808.3757743916, 1220.71694662636, -47587.6588277653, 809.729681934088, 52.8723, 52.8723, 52.8723, 147803.462876669, -483.324355567035, -79.4166236308814, -681.429321062835, -689.127122007389, -48808.3757743916, 0, ]
  - [6100, -48806.3323214602, 1205.48041797759, -47600.8519034826, 799.62294135787, 52.8723, 52.8723, 52.8723, 147803.462876669, -342.040248494612, -398.376242294156, -347.718746655738, -280.025756533938, -48806.3323214602, 0, ]
  - [6200, -48804.0030450605, 1196.91204184653, -47607.091003214, 793.939340013209, 52.8723, 52.8723, 52.8723, 147803.462876669, -375.119024259247, -252.27380334349, -357.157259654461, -515.92600977979, -48804.0030450605, 0, ]
  - [6300, -48804.4752917804, 1200.24472470638, -47604.230567074, 796.149985355322, 52.8723, 52.8723, 52.8723, 147803.462876669, 207.541446555833, 543.262011974704, -61.1220859087158, 140.484413601511, -48804.4752917804, 0, ]
  - [6400, -48808.4275522614, 1207.21331980964, -47601.2142324517, 800.77241507753, 52.8723, 52.8723, 52.8723, 147803.462876669, -591.876082804205, -545.341398946793, -504.84979586034, -725.437053605485, -48808.4275522614, 0, ]
  - [6500, -48798.5595269075, 1218.96031175564, -47579.5992151519, 808.564465542961, 52.8723, 52.8723, 52.8723, 147803.462876669, -77.0334296046115, 559.334438831412, -573.198229128084, -217.236498517163, -48798.5595269075, 0, ]
  - [6600, -48795.6701796373, 1211.43335624555, -47584.2368233917, 803.57166249557, 52.8723, 52.8723, 52.8723, 147803.462876669, 538.002512011466, 1274.51569629643, 209.935042604088, 129.556797133882, -48795.6701796373, 0, ]
  - [6700, -48801.9216901763, 1201.5721249892, -47600.3495651871, 797.030480552653, 52.8723, 52.8723, 52.8723, 147803.462876669, -206.230429349902, -552.684896186998, 95.8569687049041, -161.863360567615, -48801.9216901763, 0, ]
  - [6800, -48800.6494359513, 1205.05233217603, -47595.5971037752, 799.338982180521, 52.8723, 52.8723, 52.8723, 147803.462876669, -251.299374542552, -407.53583622498, -233.227606828373, -113.134680574308, -48800.6494359513, 0, ]
  - [6900, -48792.3632785692, 1229.82524926216, -47562.538029307, 815.771428971871, 52.8723, 52.8723, 52.8723, 147803.462876669, 355.540987851816, 515.778542582958, 802.07747782992, -251.233056857437, -48792.3632785692, 0, ]
  - [7000, -48787.0991832157, 1206.33726745808, -47580.7619157576, 800.191309364245, 52.8723, 52.8723, 52.8723, 147803.462876669, 1519.14486991537, 1076.30232826439, 1276.53156483846, 2204.60071664326, -48787.0991832157, 0, ]
  - [7100, -48802.8000211839, 1216.44131317448, -47586.3587080094, 806.893555734136, 52.8723, 52.8723, 52.8723, 147803.462876669, 203.604322968091, 80.4628591390611, -126.136778528743, 656.486888293958, -48802.8000211839, 0, ]
  - [7200, -48784.5793514273, 1204.60165862168, -47579.9776928056, 799.04004002622, 52.8723, 52.8723, 52.8723, 147803.462876669, 1932.30903748806, 1742.80504733103, 2439.02957039037, 1615.09249474278, -48784.5793514273, 0, ]
  - [7300, -48796.3431752628, 1218.867183167, -47577.4759920958, 808.50269120398, 52.8723, 52.8723, 52.8723, 147803.462876669, 575.885768545422, 148.963804717333, 512.948903265464, 1065.74459765347, -48796.3431752628, 0, ]
  - [7400, -48796.4629631164, 1214.03068210927, -47582.4322810072, 805.294528595954, 52.8723, 52.8723, 52.8723, 147803.462876669, 570.636798711558, 949.097358875033, 187.287434466967, 575.525602792674, -48796.4629631164, 0, ]
  - [7500, -48804.9645968677, 1210.82187502347, -47594.1427218442, 803.166052909472, 52.8723, 52.8723, 52.8723, 147803.462876669, -357.332467028121, 272.497340679539, -914.176217589573, -430.31852417433, -48804.9645968677, 0, ]
  - [7600, -48796.6019975689, 1207.56428023579, -47589.0377173332, 801.005215216025, 52.8723, 52.8723, 52.8723, 147803.462876669, 918.637317420755, 1343.84183547509, 91.9279419268501, 1320.14217486033, -48796.6019975689, 0, ]
  - [7700, -48800.5292611893, 1187.83579124061, -47612.6934699487, 787.918853825483, 52.8723, 52.8723, 52.8723, 147803.462876669, 398.918979540611, -61.9854416456263, 694.947749132259, 563.794631135201, -48800.5292611893, 0, ]
  - [7800, -48804.3567614794, 1208.84286831603, -47595.5138931634, 801.853332154516, 52.8723, 52.8723, 52.8723, 147803.462876669, -95.1908406875208, -34.8494823106267, 229.957965383356, -480.681005135293, -48804.3567614794, 0, ]
  - [7900, -48795.7454457771, 1208.21022041423, -47587.5352253629, 801.433682221977, 52.8723, 52.8723, 52.8723, 147803.462876669, 588.661281896932, 460.32105587907, 947.527367496933, 358.135422314796, -48795.7454457771, 0, ]
  - [8000, -48786.455310601, 1217.87400725892, -47568.581303342, 807.843894736558, 52.8723, 52.8723, 52.8723, 147803.462876669, 1566.45373339558, 1945.79699732304, 2037.97118419703, 715.593018666661, -48786.455310601, 0, ]
  - [8100, -48791.0389736782, 1231.77172248711, -47559.2672511911, 817.062569518161, 52.8723, 52.8723, 52.8723, 147803.462876669, 1094.02861649847, 1101.74599226771, 1067.43160773488, 1112.90824949283, -48791.0389736782, 0, ]
  - [8200, -48787.7889423557, 1216.32126705368, -47571.467675302, 806.813926375764, 52.8723, 52.8723, 52.8723, 147803.462876669, 1366.7926515468, 1223.93310657396, 1433.24365529394, 1443.2011927725, -48787.7889423557, 0, ]
  - [8300, -48811.9370621196, 1202.08092588495, -47609.8561362347, 797.367979912045, 52.8723, 52.8723, 52.8723, 147803.462876669, -1159.74291728562, -988.09055569449, -845.781865325206, -1645.35633083716, -48811.9370621196, 0, ]
  - [8400, -48818.0075978946, 1202.04776503029, -47615.9598328643, 797.345983552961, 52.8723, 52.8723, 52.8723, 147803.462876669, -1921.83307506548, -1992.34823233775, -1790.45937880467, -1982.69161405403, -48818.0075978946, 0, ]
  - [8500, -48798.8261722372, 1195.1756598481, -47603.6505123891, 792.787557818989, 52.8723, 52.8723, 52.8723, 147803.462876669, -188.180027804291, -264.679850535921, 149.33026469601, -449.190497572964, -48798.8261722372, 0, ]
  - [8600, -48808.8967893948, 1210.48145211351, -47598.4153372813, 802.940242548302, 52.8723, 52.8723, 52.8723, 147803.462876669, -798.763976101583, -646.64303406008, -719.88659694943, -1029.76229729524, -48808.8967893948, 0, ]
  - [8700, -48802.3811026714, 1196.89488701505, -47605.4862156564, 793.927960818158, 52.8723, 52.8723, 52.8723, 147803.462876669, -318.594000197239, -641.239427328596, -247.751463614843, -66.7911096482827, -48802.3811026714, 0, ]
  - [8800, -48798.3978678911, 1216.63491009966, -47581.7629577914, 807.021973036017, 52.8723, 52.8723, 52.8723, 147803.462876669, 486.638111755596, 806.902950219046, 459.895681341915, 193.11570370583, -48798.3978678911, 0, ]
  - [8900, -48795.743505498, 1219.75786349789, -47575.9856420001, 809.093499993054, 52.8723, 52.8723, 52.8723, 147803.462876669, 779.865723203084, 601.077021679043, 1185.66620527715, 552.853942653067, -48795.743505498, 0, ]
  - [9000, -48788.7103442762, 1210.16534963129, -47578.5449946449, 802.730564487309, 52.8723, 52.8723, 52.8723, 147803.462876669, 2120.92082941536, 2268.97795518567, 1244.25464669841, 2849.52988636201, -48788.7103442762, 0, ]
  - [9100, -48795.4657569656, 1211.91770363275, -47583.5480533329, 803.892941279208, 52.8723, 52.8723, 52.8723, 147803.462876669, 846.579472246013, 436.299574212925, 908.377642199214, 1195.0612003259, -48795.4657569656, 0, ]
  - [9200, -48793.2201013873, 1206.90635902614, -47586.3137423611, 800.568800915967, 52.8723, 52.8723, 52.8723, 147803.462876669, 1246.43801062998, 1671.27316938202, 1219.37191943699, 848.668943070924, -48793.2201013873, 0, ]
  - [9300, -48806.1075614608, 1205.2739768437, -47600.8335846171, 799.486004196359, 52.8723, 52.8723, 52.8723, 147803.462876669, -529.21415249023, -506.93005206248, -692.563079095585, -388.149326312624, -48806.1075614608, 0, ]
  - [9400, -48807.0197484472, 1194.12241427584, -47612.8973341714, 792.088915759027, 52.8723, 52.8723, 52.8723, 147803.462876669, -568.356338021892, -441.733031263873, -815.021664738355, -448.314318063441, -48807.0197484472, 0, ]
  - [9500, -48791.4288267947, 1206.15714675052, -47585.2716800442, 800.071831148069, 52.8723, 52.8723, 52.8723, 147803.462876669, 1037.02434407459, 1171.06113830737, 879.419722754601, 1060.59217116182, -48791.4288267947, 0, ]
  - [9600, -48795.4335263476, 1216.01330379982, -47579.4202225477, 806.609647252512, 52.8723, 52.8723, 52.8723, 147803.462876669, 733.615516489763, 605.296194189589, 1161.23233580566, 434.318019474052, -48795.4335263476, 0, ]
  - [9700, -48802.5340101837, 1205.91099065521, -47596.6230195285, 799.908550137419, 52.8723, 52.8723, 52.8723, 147803.462876669, -644.445361502135, -1245.96206851384, -725.805564665539, 38.4315486729774, -48802.5340101837, 0, ]
  - [9800, -48803.9880404354, 1217.52574386934, -47586.4622965661, 807.612883604575, 52.8723, 52.8723, 52.8723, 147803.462876669, -318.738105590362, -617.508305304017, 43.1884165440942, -381.894428011162, -48803.9880404354, 0, ]
  - [9900, -48799.7334405631, 1216.85156421687, -47582.8818763462, 807.165684704721, 52.8723, 52.8723, 52.8723, 147803.462876669, 253.438457389809, 53.6504251687663, 325.622065393986, 381.042881606677, -48799.7334405631, 0, ]
  - [10000, -48787.3003977244, 1175.16432386991, -47612.1360738545, 779.513577506459, 52.8723, 52.8723, 52.8723, 147803.462876669, 1519.4779256551, 1068.82183638462, 1802.18044617377, 1687.4314944069, -48787.3003977244, 0, ]
  - [10100, -48785.2757340933, 1208.13808767658, -47577.1376464168, 801.385834914802, 52.8723, 52.8723, 52.8723, 147803.462876669, 1447.10394152714, 1483.76621984478, 1531.59896657993, 1325.94663815672, -48785.2757340933, 0, ]
  - [10200, -48814.9317474003, 1212.29223625921, -47602.6395111411, 804.141377401385, 52.8723, 52.8723, 52.8723, 147803.462876669, -1288.95164426559, -1209.42225633053, -1061.5852683687, -1595.84740809754, -48814.9317474003, 0, ]
  - [10300, -48804.1025006774, 1201.72860960696, -47602.3738910705, 797.134280405775, 52.8723, 52.8723, 52.8723, 147803.462876669, -743.893289750731, -811.005770396558, -211.28257508669, -1209.39152376894, -48804.1025006774, 0, ]
  - [10400, -48795.8106604573, 1203.57373998778, -47592.2369204695, 798.358197908122, 52.8723, 52.8723, 52.8723, 147803.462876669, 208.994996078563, 60.0813868614438, 132.237819061984, 434.665782312266, -48795.8106604573, 0, ]
  - [10500, -48795.1717740571, 1203.98508083541, -47591.1866932217, 798.631049771642, 52.8723, 52.8723, 52.8723, 147803.462876669, 590.53437375001, 1127.03040269727, 859.659078498748, -215.086359945988, -48795.1717740571, 0, ]
  - [10600, -48798.9380507945, 1209.3947171594, -47589.5433336351, 802.219386209595, 52.8723, 52.8723, 52.8723, 147803.462876669, 57.1614080691303, 5.32140147896386, 949.885854099161, -783.723031370737, -48798.9380507945, 0, ]
  - [10700, -48801.486500019, 1218.97017968047, -47582.5163203385, 808.571011164901, 52.8723, 52.8723, 52.8723, 147803.462876669, -258.12820529783, -153.019704895916, 177.695657649698, -799.060568647272, -48801.486500019, 0, ]
  - [10800, -48795.9532761765, 1211.2728446848, -47584.6804314917, 803.465191478359, 52.8723, 52.8723, 52.8723, 147803.462876669, 1005.59132481141, 868.486131345073, 922.068085419275, 1226.21975766989, -48795.9532761765, 0, ]
  - [10900, -48800.6924591466, 1204.63834191629, -47596.0541172303, 799.064372900896, 52.8723, 52.8723, 52.8723, 147803.462876669, 183.740337218613, 351.124642299702, -233.13487697228, 433.231246328417, -48800.6924591466, 0, ]
  - [11000, -48801.9686338713, 1208.53934289702, -47593.4292909743, 801.651996749385, 52.8723, 52.8723, 52.8723, 147803.462876669, 63.9757995804947, -617.976533468684, -98.3110685257728, 908.21500073594, -48801.9686338713, 0, ]
  - [11100, -48801.3955660829, 1196.10920978652, -47605.2863562964, 793.406803006665, 52.8723, 52.8723, 52.8723, 147803.462876669, -432.952927032706, -299.905476946815, -599.341240039055, -399.612064112247, -48801.3955660829, 0, ]
  - [11200, -48796.4505965408, 1211.67964172611, -47584.7709548147, 803.735029330436, 52.8723, 52.8723, 52.8723, 147803.462876669, 562.051117892343, 857.182078159756, 368.881322859127, 460.089952658141, -48796.4505965408, 0, ]
  - [11300, -48803.6908041584, 1211.79963080161, -47591.8911733568, 803.814620849342, 52.8723, 52.8723, 52.8723, 147803.462876669, -243.078732783511, -34.9879989326756, -761.761984645179, 67.5137852273255, -48803.6908041584, 0, ]
  - [11400, -48786.9056067681, 1204.58100022799, -47582.3246065401, 799.026336837612, 52.8723, 52.8723, 52.8723, 147803.462876669, 1007.78778582574, 1265.1828694482, 1372.6531331266, 385.527354902409, -48786.9056067681, 0, ]
  - [11500, -48811.8782816888, 1212.75646338924, -47599.1218182995, 804.44930995478, 52.8723, 52.8723, 52.8723, 147803.462876669, -529.180183229175, -304.201028680577, -238.561341599013, -1044.77817940793, -48811.8782816888, 0, ]
  - [11600, -48800.7537515676, 1208.98428473442, -47591.7694668332, 801.947136923756, 52.8723, 52.8723, 52.8723, 147803.462876669, -67.2271603116694, 245.130756614837, 8.80237815083337, -455.614615700676, -48800.7537515676, 0, ]
  - [11700, -48802.2044384928, 1209.54563051208, -47592.6588079808, 802.319490514202, 52.8723, 52.8723, 52.8723, 147803.462876669, 20.6890716477684, -583.651262304348, 234.024502644373, 411.693974603279, -48802.2044384928, 0, ]
  - [11800, -48795.4318484117, 1205.02521070888, -47590.4066377028, 799.320991886355, 52.8723, 52.8723, 52.8723, 147803.462876669, 775.067463868094, 776.682550709227, 836.746260176122, 711.773580718933, -48795.4318484117, 0, ]
  - [11900, -48796.5094763903, 1202.39733169189, -47594.1121446984, 797.57785917531, 52.8723, 52.8723, 52.8723, 147803.462876669, 749.076226106717, 741.56913263329, 505.139491917428, 1000.52005376943, -48796.5094763903, 0, ]
  - [12000, -48807.4344470351, 1203.7844122662, -47603.6500347689, 798.497941685313, 52.8723, 52.8723, 52.8723, 147803.462876669, -699.672967617066, -1131.48247576565, -767.066101399709, -200.470325685841, -48807.4344470351, 0, ]
  - [12100, -48801.3330476267, 1205.15810942986, -47596.1749381968, 799.409146670611, 52.8723, 52.8723, 52.8723, 147803.462876669, 291.652539167467, 90.7312781533454, 333.843661809305, 450.38267753975, -48801.3330476267, 0, ]
  - [12200, -48784.0373633684, 1202.5398606637, -47581.4975027047, 797.672401926867, 52.8723, 52.8723, 52.8723, 147803.462876669, 1808.85941769885, 2317.99044855496, 1795.99352685204, 1312.59427768956, -48784.0373633684, 0, ]
  - [12300, -48806.4508286378, 1209.80804779365, -47596.6427808441, 802.493557944437, 52.8723, 52.8723, 52.8723, 147803.462876669, 277.682207386615, 182.028302647265, 504.654636050618, 146.363683461963, -48806.4508286378, 0, ]
  - [12400, -48790.2952253239, 1199.99950046148, -47590.2957248624, 795.98732246252, 52.8723, 52.8723, 52.8723, 147803.462876669, 862.15344519157, 640.222824374359, 1082.27753845583, 863.959972744518, -48790.2952253239, 0, ]
  - [12500, -48807.5490334814, 1194.84467050497, -47612.7043629764, 792.568004960096, 52.8723, 52.8723, 52.8723, 147803.462876669, -911.479456066561, -929.371453033536, -542.32827268907, -1262.73864247707, -48807.5490334814, 0, ]
  - [12600, -48806.6716184341, 1216.74671458212, -47589.924903852, 807.096135525749, 52.8723, 52.8723, 52.8723, 147803.462876669, -639.904422417569, -360.725542002801, -1344.55555088852, -214.432174361382, -48806.6716184341, 0, ]
  - [12700, -48807.6073567144, 1219.4568136191, -47588.1505430953, 808.893806670801, 52.8723, 52.8723, 52.8723, 147803.462876669, -323.490068295481, -379.893752641609, -228.211555863294, -362.364896381537, -48807.6073567144, 0, ]
  - [12800, -48804.0645331263, 1194.99825907279, -47609.0662740535, 792.669883796556, 52.8723, 52.8723, 52.8723, 147803.462876669, -268.09083667508, -240.870606645284, -21.0113146788974, -542.390588701062, -48804.0645331263, 0, ]
  - [12900, -48790.1803477776, 1196.38213955097, -47593.7982082267, 793.587843609046, 52.8723, 52.8723, 52.8723, 147803.462876669, 1173.76272103876, 1331.12494923083, 1381.90772123383, 808.255492651617, -48790.1803477776, 0, ]
  - [13000, -48813.1958066165, 1213.89961744821, -47599.2961891683, 805.207590385907, 52.8723, 52.8723, 52.8723, 147803.462876669, -1215.96183948115, -864.162680018504, -1297.85828838947, -1485.86455003547, -48813.1958066165, 0, ]
  - [13100, -48798.9653485908, 1216.80397629796, -47582.1613722928, 807.134118541458, 52.8723, 52.8723, 52.8723, 147803.462876669, 332.049862275514, -235.550410664651, 943.107296209825, 288.592701281371, -48798.9653485908, 0, ]
  - [13200, -48803.9272531711, 1207.43952583193, -47596.4877273391, 800.922462744996, 52.8723, 52.8723, 52.8723, 147803.462876669, -148.832179504431, 79.3211490292295, -154.882987707002, -370.934699835521, -48803.9272531711, 0, ]
  - [13300, -48805.6671729562, 1220.4248758515, -47585.2422971047, 809.535944658401, 52.8723, 52.8723, 52.8723, 147803.462876669, -54.7929202208674, 260.291665295595, 81.429198033517, -506.099623991717, -48805.6671729562, 0, ]
  - [13400, -48791.2067979428, 1200.50818941095, -47590.6986085318, 796.324747565366, 52.8723, 52.8723, 52.8723, 147803.462876669, 1120.31016635584, 941.779731989627, 1384.24375277118, 1034.90701430672, -48791.2067979428, 0, ]
  - [13500, -48797.6380993261, 1199.99040537127, -47597.6476939549, 795.981289479591, 52.8723, 52.8723, 52.8723, 147803.462876669, 211.602877528535, -8.59383713370719, 318.420289845078, 324.982179874238, -48797.6380993261, 0, ]
  - [13600, -48813.4839020982, 1203.22102521607, -47610.2628768822, 798.12423407179, 52.8723, 52.8723, 52.8723, 147803.462876669, -770.029859006417, -528.606537185013, -708.742941849124, -1072.74009798512, -48813.4839020982, 0, ]
  - [13700, -48800.1983716043, 1205.08884586223, -47595.1095257421, 799.363202550031, 52.8723, 52.8723, 52.8723, 147803.462876669, 192.578128934014, 172.012729434043, 989.135378744069, -583.413721376066, -48800.1983716043, 0, ]
  - [13800, -48798.5210153051, 1199.05018875142, -47599.4708265537, 795.357622128493, 52.8723, 52.8723, 52.8723, 147803.462876669, 637.403956344154, 785.191325093728, 776.725306588112, 350.295237350622, -48798.5210153051, 0, ]
  - [13900, -48794.3326289761, 1205.42076433375, -47588.9118646423, 799.583371721205, 52.8723, 52.8723, 52.8723, 147803.462876669, 752.189618551861, 917.641949908732, 911.269604271687, 427.657301475163, -48794.3326289761, 0, ]
  - [14000, -48803.7231172898, 1220.92411788424, -47582.7989994056, 809.867103403675, 52.8723, 52.8723, 52.8723, 147803.462876669, -298.270924839559, -370.981340022425, -190.292998036684, -333.538436459568, -48803.7231172898, 0, ]
  - [14100, -48790.0576793251, 1188.95031618203, -47601.1073631431, 788.658143903186, 52.8723, 52.8723, 52.8723, 147803.462876669, 1102.11353594594, 1099.46512241904, 1030.52110695303, 1176.35437846574, -48790.0576793251, 0, ]
  - [14200, -48815.8829287512, 1222.47591763922, -47593.407011112, 810.896447942143, 52.8723, 52.8723, 52.8723, 147803.462876669, -1223.66076108868, -701.017447862673, -1288.50678511144, -1681.45805029192, -48815.8829287512, 0, ]
  - [14300, -48798.914698668, 1210.64234931169, -47588.2723493563, 803.046969367706, 52.8723, 52.8723, 52.8723, 147803.462876669, 11.1084758787563, 32.7140824855056, -16.7215322535654, 17.3328774043349, -48798.914698668, 0, ]
  - [14400, -48783.1113585487, 1193.60841404961, -47589.5029444991, 791.747967563911, 52.8723, 52.8723, 52.8723, 147803.462876669, 1685.2867748344, 1730.14032601691, 1625.40908945636, 1700.31090902994, -48783.1113585487, 0, ]
  - [14500, -48796.3626514477, 1214.84312579525, -47581.5195256525, 805.833441215505, 52.8723, 52.8723, 52.8723, 147803.462876669, 832.551740107, 702.247840934368, 797.871822148404, 997.535557238228, -48796.3626514477, 0, ]
  - [14600, -48801.5744345159, 1211.83667993013, -47589.7377545858, 803.839196390079, 52.8723, 52.8723, 52.8723, 147803.462876669, 385.729327008902, -115.732253979124, 1051.05604583264, 221.86418917319, -48801.5744345159, 0, ]
  - [14700, -48800.0780632537, 1200.6638443862, -47599.4142188675, 796.427997097493, 52.8723, 52.8723, 52.8723, 147803.462876669, -60.948558931963, 478.242325516229, -274.804813151107, -386.283189161009, -48800.0780632537, 0, ]
  - [14800, -48808.7933429184, 1212.13236270107, -47596.6609802174, 804.035329586012, 52.8723, 52.8723, 52.8723, 147803.462876669, -967.038038085471, -756.809390885147, -1612.6390881573, -531.665635213966, -48808.7933429184, 0, ]
  - [14900, -48795.2092308961, 1201.14917084351, -47594.0600600526, 796.749925320899, 52.8723, 52.8723, 52.8723, 147803.462876669, 736.250126303038, 1203.58039296111, 1109.39326885917, -104.223282911149, -48795.2092308961, 0, ]
  - [15000, -48795.1509887824, 1210.93101469056, -47584.2199740919, 803.238447765755, 52.8723, 52.8723, 52.8723, 147803.462876669, 642.892992281617, 768.354522038163, 469.233257112433, 691.091197694247, -48795.1509887824, 0, ]
  - [15100, -48798.1374985461, 1207.97405104723, -47590.1634474989, 801.277025638355, 52.8723, 52.8723, 52.8723, 147803.462876669, 766.617604862707, 908.542719242081, 844.845525250826, 546.464570095214, -48798.1374985461, 0, ]
  - [15200, -48801.9604107358, 1202.6194912861, -47599.3409194497, 797.725222753786, 52.8723, 52.8723, 52.8723, 147803.462876669, 213.593425168593, 329.52792788911, 309.993494169457, 1.25885344720965, -48801.9604107358, 0, ]
  - [15300, -48800.3023474489, 1200.92069796678, -47599.3816494821, 796.598373996647, 52.8723, 52.8723, 52.8723, 147803.462876669, -131.061214799632, -260.854945362933, 12.2135180273341, -144.542217063293, -48800.3023474489, 0, ]
  - [15400, -48788.6057155546, 1209.0850979387, -47579.5206176159, 802.01400864538, 52.8723, 52.8723, 52.8723, 147803.462876669, 1486.70990217081, 1258.24677049304, 1601.73217965969, 1600.15075635969, -48788.6057155546, 0, ]
  - [15500, -48798.3672823674, 1222.43996177618, -47575.9273205913, 810.872597589589, 52.8723, 52.8723, 52.8723, 147803.462876669, 852.201621589372, 688.681399456115, 757.886448570535, 1110.03701674146, -48798.3672823674, 0, ]
  - [15600, -48797.7945279276, 1207.98388415277, -47589.8106437748, 801.283548163867, 52.8723, 52.8723, 52.8723, 147803.462876669, 803.689791765203, 522.035699515281, 1251.07614829241, 637.957527487913, -48797.7945279276, 0, ]
  - [15700, -48787.8807376424, 1201.61087606489, -47586.2698615775, 797.056185034171, 52.8723, 52.8723, 52.8723, 147803.462876669, 1405.03328558698, 1127.88709618054, 1720.5519374122, 1366.66082316822, -48787.8807376424, 0, ]
  - [15800, -48803.6774636138, 1209.86801117865, -47593.8094524352, 802.533333039551, 52.8723, 52.8723, 52.8723, 147803.462876669, -359.459810371217, -392.354937342534, -306.9925302187, -379.031963552417, -48803.6774636138, 0, ]
  - [15900, -48806.6944873121, 1199.98835919239, -47606.7061281197, 795.979932201984, 52.8723, 52.8723, 52.8723, 147803.462876669, -386.961899325957, -1041.43988636722, 61.5870905307113, -181.032902141372, -48806.6944873121, 0, ]
  - [16000, -48798.7905351243, 1211.72660744575, -47587.0639276786, 803.766182774589, 52.8723, 52.8723, 52.8723, 147803.462876669, 269.273157109559, 566.596797000273, -216.362378939061, 457.585053267463, -48798.7905351243, 0, ]
  - [16100, -48794.9516868634, 1204.3921404564, -47590.559546407, 798.901061798873, 52.8723, 52.8723, 52.8723, 147803.462876669, 949.778144536534, 1211.00403782128, 829.171679082279, 809.158716706039, -48794.9516868634, 0, ]
  - [16200, -48800.421634463, 1212.36502896919, -47588.0566054938, 804.189662483413, 52.8723, 52.8723, 52.8723, 147803.462876669, 416.115271014853, 334.018844274029, 101.225868136549, 813.101100633983, -48800.421634463, 0, ]
  - [16300, -48793.6778439294, 1211.62019837005, -47582.0576455593, 803.695599182495, 52.8723, 52.8723, 52.8723, 147803.462876669, 629.339677586108, 900.662404570397, 819.694174144718, 167.662454043208, -48793.6778439294, 0, ]
  - [16400, -48798.6433120742, 1208.81252503149, -47589.8307870427, 801.833204754622, 52.8723, 52.8723, 52.8723, 147803.462876669, -126.434741760974, -117.940736328108, -554.67825473507, 293.314765780258, -48798.6433120742, 0, ]
  - [16500, -48799.232815522, 1215.24503482002, -47583.987780702, 806.10003673357, 52.8723, 52.8723, 52.8723, 147803.462876669, 502.091092051818, 368.514551159765, 118.147523491409, 1019.61120150428, -48799.232815522, 0, ]
  - [16600, -48796.9185324466, 1221.83568395127, -47575.0828484954, 810.471766182832, 52.8723, 52.8723, 52.8723, 147803.462876669, 408.600106701219, 306.06130332377, 778.045162263774, 141.693854516116, -48796.9185324466, 0, ]
  - [16700, -48790.7123124552, 1207.54389319428, -47583.168419261, 800.991692021574, 52.8723, 52.8723, 52.8723, 147803.462876669, 1033.37119246546, 472.824831436486, 1246.06126606121, 1381.22747989867, -48790.7123124552, 0, ]
  - [16800, -48800.9434691135, 1211.13697320167, -47589.8064959118, 803.375064792462, 52.8723, 52.8723, 52.8723, 147803.462876669, -494.900067068307, -368.125997706996, -675.12588375816, -441.448319739765, -48800.9434691135, 0, ]
  - [16900, -48797.296570647, 1202.79546484125, -47594.5011058057, 797.8419500682, 52.8723, 52.8723, 52.8723, 147803.462876669, 683.946375344758, 601.451223188913, 310.107679125293, 1140.28022372007, -48797.296570647, 0, ]
  - [17000, -48782.9215036252, 1196.56265471664, -47586.3588489086, 793.707583478381, 52.8723, 52.8723, 52.8723, 147803.462876669, 2190.34269243859, 2546.90691671142, 1593.34799579556, 2430.77316480881, -48782.9215036252, 0, ]
  - [17100, -48801.3911199838, 1203.3132297141, -47598.0778902697, 798.185395440173, 52.8723, 52.8723, 52.8723, 147803.462876669, -101.653613194959, 137.618508351816, -621.624271861797, 179.044923925104, -48801.3911199838, 0, ]
  - [17200, -48801.0484984735, 1199.6597521901, -47601.3887462834, 795.76195960467, 52.8723, 52.8723, 52.8723, 147803.462876669, 526.412837251453, 720.969524987652, 318.054053463565, 540.214933303143, -48801.0484984735, 0, ]
  - [17300, -48799.5849598647, 1205.48356741017, -47594.1013924545, 799.625030449077, 52.8723, 52.8723, 52.8723, 147803.462876669, 305.845468590029, 688.875138257102, 36.0606924502625, 192.600575062726, -48799.5849598647, 0, ]
  - [17400, -48797.2496086867, 1187.79851944386, -47609.4510892428, 787.894130583781, 52.8723, 52.8723, 52.8723, 147803.462876669, 684.559600601543, 450.940669190811, 512.815688266264, 1089.92244434755, -48797.2496086867, 0, ]
  - [17500, -48801.3619801505, 1197.97638721435, -47603.3855929362, 794.645344823362, 52.8723, 52.8723, 52.8723, 147803.462876669, -162.995320763185, -133.93478712489, -785.0491549429, 429.997979778232, -48801.3619801505, 0, ]
  - [17600, -48808.9009859539, 1211.19621925186, -47597.7047667021, 803.414364062867, 52.8723, 52.8723, 52.8723, 147803.462876669, -685.410801983027, -898.3942819491, -850.009476275496, -307.828647724484, -48808.9009859539, 0, ]
  - [17700, -48809.798715722, 1203.64983131906, -47606.1488844029, 798.408671041673, 52.8723, 52.8723, 52.8723, 147803.462876669, -861.133163929249, -452.718076019788, -789.999807714726, -1340.68160805323, -48809.798715722, 0, ]
  - [17800, -48798.023471063, 1203.6967651662, -47594.3267058968, 798.439803344066, 52.8723, 52.8723, 52.8723, 147803.462876669, 434.224733626687, 899.841296724344, 64.2311712295522, 338.601732926168, -48798.023471063, 0, ]
  - [17900, -48800.3073941904, 1211.7854934081, -47588.5219007823, 803.805243190434, 52.8723, 52.8723, 52.8723, 147803.462876669, -108.845373570171, -233.295860725219, 165.652286294399, -258.89254627969, -48800.3073941904, 0, ]
  - [18000, -48810.812256955, 1203.36703214633, -47607.4452248086, 798.221083833342, 52.8723, 52.8723, 52.8723, 147803.462876669, -626.553317969859, -844.861591266224, 1.75183508142844, -1036.55019772478, -48810.812256955, 0, ]
  - [18100, -48803.0967684843, 1201.93485682923, -47601.1619116551, 797.271088941243, 52.8723, 52.8723, 52.8723, 147803.462876669, 144.425567873026, -293.922882426667, 354.186509563058, 373.013076482684, -48803.0967684843, 0, ]
  - [18200, -48810.1461994355, 1214.10650723689, -47596.0396921986, 805.344825150479, 52.8723, 52.8723, 52.8723, 147803.462876669, -849.623019451997, -777.626139983182, -608.438175283523, -1162.80474308929, -48810.1461994355, 0, ]
  - [18300, -48815.0571039613, 1206.58760063224, -47608.4695033291, 800.357361127553, 52.8723, 52.8723, 52.8723, 147803.462876669, -866.48332977184, -1213.74970976364, -702.609723183752, -683.090556368122, -48815.0571039613, 0, ]
  - [18400, -48816.4161691341, 1193.99229762543, -47622.4238715087, 792.002606386294, 52.8723, 52.8723, 52.8723, 147803.462876669, -1883.15564892505, -2400.7810236581, -1322.61896335877, -1926.06695975829, -48816.4161691341, 0, ]
  - [18500, -48807.814658964, 1203.77554412637, -47604.0391148376, 798.492059243798, 52.8723, 52.8723, 52.8723, 147803.462876669, -248.221347727606, -91.8079232127154, -549.013537654473, -103.842582315627, -48807.814658964, 0, ]
  - [18600, -48806.3261657829, 1199.56248180967, -47606.7636839733, 795.697437919749, 52.8723, 52.8723, 52.8723, 147803.462876669, -636.021535987352, -677.551550311264, -909.200025111887, -321.313032538907, -48806.3261657829, 0, ]
  - [18700, -48794.5084535519, 1189.8051278407, -47604.7033257112, 789.225160175391, 52.8723, 52.8723, 52.8723, 147803.462876669, 927.977474620294, 1428.53231164647, 307.715591908402, 1047.68452030601, -48794.5084535519, 0, ]
  - [18800, -48818.4568515754, 1208.13906795682, -47610.3177836186, 801.38648515728, 52.8723, 52.8723, 52.8723, 147803.462876669, -1839.82482570386, -1842.73415379118, -1898.05960924358, -1778.68071407683, -48818.4568515754, 0, ]
  - [18900, -48807.6700255064, 1202.54150184203, -47605.1285236644, 797.673490558278, 52.8723, 52.8723, 52.8723, 147803.462876669, -508.956551981292, -641.995512500059, 67.5623749662105, -952.436518410029, -48807.6700255064, 0, ]
  - [19000, -48803.0033082203, 1202.80391640009, -47600.1993918202, 797.847556181945, 52.8723, 52.8723, 52.8723, 147803.462876669, 118.064472899841, 220.126827447337, 206.602560992665, -72.5359697404723, -48803.0033082203, 0, ]
  - [19100, -48806.8017679195, 1211.44533359038, -47595.3564343292, 803.579607344408, 52.8723, 52.8723, 52.8723, 147803.462876669, -693.264762113867, -1127.54334982512, -755.870835600314, -196.380100916166, -48806.8017679195, 0, ]
  - [19200, -48795.910172766, 1219.44405052435, -47576.4661222417, 808.885340615929, 52.8723, 52.8723, 52.8723, 147803.462876669, 630.53240970068, 342.546851088956, 645.637399887298, 903.412978125781, -48795.910172766, 0, ]
  - [19300, -48796.346907196, 1208.53773039969, -47587.8091767963, 801.650927142751, 52.8723, 52.8723, 52.8723, 147803.462876669, 330.51538366683, 288.821808171101, 478.229312353585, 224.495030475809, -48796.346907196, 0, ]
  - [19400, -48806.5116131367, 1216.31122092109, -47590.2003922156, 806.807262544505, 52.8723, 52.8723, 52.8723, 147803.462876669, -981.685688341176, -960.625470178515, -1059.37810474343, -925.053490101584, -48806.5116131367, 0, ]
  - [19500, -48804.3284457037, 1220.86958705321, -47583.4588586505, 809.830931846794, 52.8723, 52.8723, 52.8723, 147803.462876669, -376.844747149195, -556.261826048255, -659.29195794777, 85.0195425484406, -48804.3284457037, 0, ]
  - [19600, -48804.9934446528, 1208.74944442064, -47596.2440002322, 801.79136193176, 52.8723, 52.8723, 52.8723, 147803.462876669, -161.827481696043, -468.713164253466, -501.203131101674, 484.433850267018, -48804.9934446528, 0, ]
  - [19700, -48796.6382702581, 1199.9390011, -47596.6992691581, 795.947191841856, 52.8723, 52.8723, 52.8723, 147803.462876669, 885.823272966055, 696.318210116814, 977.306371911505, 983.845236869847, -48796.6382702581, 0, ]
  - [19800, -48807.2857792737, 1200.43500520323, -47606.8507740704, 796.276202793868, 52.8723, 52.8723, 52.8723, 147803.462876669, -486.70079216971, -814.295207701286, -217.892798797842, -427.914370010005, -48807.2857792737, 0, ]
  - [19900, -48808.3596521757, 1194.89846089202, -47613.4611912837, 792.603685363419, 52.8723, 52.8723, 52.8723, 147803.462876669, -680.961841152414, -505.061075405014, -931.575555427494, -606.248892624735, -48808.3596521757, 0, ]
  - [20000, -48793.9041013102, 1202.27477082135, -47591.6293304888, 797.496561725485, 52.8723, 52.8723, 52.8723, 147803.462876669, 1063.86814908486, 1009.10233996561, 962.89152623021, 1219.61058105876, -50016.1428307216, 0, ]
...
Loop time of 21.506 on 64 procs for 20000 steps with 11664 atoms

Performance: 80.350 ns/day, 0.299 hours/ns, 929.973 timesteps/s, 10.847 Matom-step/s
70.2% CPU use with 64 MPI tasks x 1 OpenMP threads

MPI task timing breakdown:
Section |  min time  |  avg time  |  max time  |%varavg| %total
---------------------------------------------------------------
Pair    | 11.636     | 12.712     | 13.875     |  14.3 | 59.11
Neigh   | 0          | 0          | 0          |   0.0 |  0.00
Comm    | 4.2758     | 5.699      | 6.9344     |  28.0 | 26.50
Output  | 0.029533   | 0.030843   | 0.1008     |   5.0 |  0.14
Modify  | 1.9844     | 2.5395     | 3.6365     |  29.0 | 11.81
Other   |            | 0.5251     |            |       |  2.44

Nlocal:         182.25 ave         250 max         128 min
Histogram: 1 6 15 0 18 11 6 6 0 1
Nghost:        1275.75 ave        1330 max        1208 min
Histogram: 1 0 6 6 9 20 0 15 6 1
Neighs:           8019 ave       10580 max        5852 min
Histogram: 1 6 9 10 12 13 6 2 4 1

Total # of neighbors = 513216
Ave neighs/atom = 44
Neighbor list builds = 0
Dangerous builds = 0
fix fpf all print 1 "${dE} ${lambda}" title "# dE [eV] lambda" screen no file data/forward_${T}K.dat
fix fpf all print 1 "${dE} ${lambda}" title "# dE [eV] lambda" screen no file data/forward_800K.dat
run ${t}
run 100000
Per MPI rank memory allocation (min/avg/max) = 3.731 | 3.734 | 3.736 Mbytes
---
keywords: ['Step', 'PotEng', 'KinEng', 'TotEng', 'Temp', 'Lx', 'Ly', 'Lz', 'Volume', 'Press', 'Pxx', 'Pyy', 'Pzz', 'v_dE', 'v_lambda', ]
data:
  - [20000, -48793.9041013102, 1202.27477082135, -47591.6293304888, 797.496561725485, 52.8723, 52.8723, 52.8723, 147803.462876669, 1063.86814908486, 1009.10233996557, 962.891526230233, 1219.61058105877, -50016.1428307216, 0, ]
  - [20100, -48797.2615812739, 1210.32110092095, -47586.9404803529, 802.833877907005, 52.8723, 52.8723, 52.8723, 147803.462876669, 436.852977817849, 487.230854480937, 190.100019717177, 633.228059255429, -50028.7414729613, 1.2558053968507e-13, ]
  - [20200, -48808.4689098226, 1222.31715235322, -47586.1517574693, 810.791135269217, 52.8723, 52.8723, 52.8723, 147803.462876669, -337.006319430277, -958.635109971691, 386.703463203564, -439.087311522705, -50032.548945523, 4.00518903939584e-12, ]
  - [20300, -48802.2618710841, 1189.03865592995, -47613.2232151542, 788.71674169376, 52.8723, 52.8723, 52.8723, 147803.462876669, -647.177371706729, -887.841436140606, -433.187284334653, -620.50339464493, -50045.926590819, 3.03129989146628e-11, ]
  - [20400, -48800.8328291842, 1189.52643094115, -47611.306398243, 789.040294099388, 52.8723, 52.8723, 52.8723, 147803.462876669, -264.053966403053, -281.170055789157, -391.910778024916, -119.081065395084, -50024.8468926761, 1.2731250673451e-10, ]
  - [20500, -48803.8535276808, 1197.72710663117, -47606.1264210497, 794.479991267905, 52.8723, 52.8723, 52.8723, 147803.462876669, -574.155753282629, -709.026498852187, -83.156241484453, -930.284519511244, -50017.6153030632, 3.87229564589844e-10, ]
  - [20600, -48803.0614561933, 1210.68563332458, -47592.3758228688, 803.075680650928, 52.8723, 52.8723, 52.8723, 147803.462876669, 427.73965354604, 553.092921274319, 777.053248958457, -46.9272095946523, -50004.9625489153, 9.60331117066399e-10, ]
  - [20700, -48810.9972418492, 1205.56479835804, -47605.4324434911, 799.678912808753, 52.8723, 52.8723, 52.8723, 147803.462876669, -1624.83626930859, -1611.06094584648, -1582.08701524674, -1681.36084683254, -50010.5975455372, 2.06871232013244e-09, ]
  - [20800, -48807.8965885055, 1188.54612064534, -47619.3504678601, 788.390031689074, 52.8723, 52.8723, 52.8723, 147803.462876669, -692.239143311392, -1039.10383390236, -757.386914625458, -280.226681406359, -50018.1395328022, 4.0197947066522e-09, ]
  - [20900, -48804.6771387253, 1210.58823237649, -47594.0889063488, 803.011072357467, 52.8723, 52.8723, 52.8723, 147803.462876669, -416.013332358463, -350.793973177949, -474.08011360644, -423.165910290999, -50015.2173672973, 7.21953805066232e-09, ]
  - [21000, -48806.8994477247, 1190.79906115085, -47616.1003865738, 789.884459045054, 52.8723, 52.8723, 52.8723, 147803.462876669, -515.744192191375, -499.946521465262, -583.462272657669, -463.823782451197, -50009.229049208, 1.218536857e-08, ]
  - [21100, -48809.1503296353, 1202.69191620439, -47606.4584134309, 797.773263871104, 52.8723, 52.8723, 52.8723, 147803.462876669, -648.733915779597, -568.693302973379, -584.673943524473, -792.834500840938, -50005.057243255, 1.95588260943488e-08, ]
  - [21200, -48796.974701013, 1213.14162699002, -47583.833074023, 804.704797847213, 52.8723, 52.8723, 52.8723, 147803.462876669, 321.379968611285, 640.650589736252, -248.451323059865, 571.940639157471, -50025.4196054794, 3.01179328132704e-08, ]
  - [21300, -48795.550452149, 1197.48374865679, -47598.0667034922, 794.318566315354, 52.8723, 52.8723, 52.8723, 147803.462876669, 523.633136583979, 1134.92772419367, 173.979719754146, 261.991965804124, -50021.4588338787, 4.47892862063179e-08, ]
  - [21400, -48802.0413222902, 1214.02379072365, -47588.0175315666, 805.289957381062, 52.8723, 52.8723, 52.8723, 147803.462876669, 513.976969828411, 551.891533518458, 236.366424941666, 753.672951025105, -49998.1157336358, 6.46598787448807e-08, ]
  - [21500, -48789.3359653939, 1219.0986026384, -47570.2373627555, 808.656197072382, 52.8723, 52.8723, 52.8723, 147803.462876669, 1496.17211821126, 1160.49771648112, 1495.01080955851, 1833.00782859415, -50015.5590711655, 9.09886469429883e-08, ]
  - [21600, -48787.4009159105, 1206.75810907836, -47580.6428068322, 800.470463309211, 52.8723, 52.8723, 52.8723, 147803.462876669, 1449.68135934871, 1481.4825603562, 1609.92793269715, 1257.63358499279, -50002.4258273939, 1.25217752321905e-07, ]
  - [21700, -48807.6469519585, 1219.18234581563, -47588.4646061429, 808.711745851693, 52.8723, 52.8723, 52.8723, 147803.462876669, -407.904642398081, -634.343156468179, -533.648941991686, -55.7218287343759, -49999.2926851992, 1.68983596840977e-07, ]
  - [21800, -48805.937916725, 1189.0666580213, -47616.8712587037, 788.735316126256, 52.8723, 52.8723, 52.8723, 147803.462876669, -405.876280908875, -802.199797732062, -266.394833934991, -149.034211059568, -50054.3610138335, 2.24127575334849e-07, ]
  - [21900, -48822.1117076684, 1194.72813956909, -47627.3835680993, 792.490707304887, 52.8723, 52.8723, 52.8723, 147803.462876669, -2243.7429043653, -1905.90319054396, -2557.53556344235, -2267.78995910958, -50065.1141910737, 2.92706567484841e-07, ]
  - [22000, -48809.3139260873, 1206.23394675466, -47603.0799793327, 800.122774360658, 52.8723, 52.8723, 52.8723, 147803.462876669, -457.349225171847, -1214.16478397652, -172.353025645522, 14.4701341064999, -50021.477211801, 3.7700317184e-07, ]
  - [22100, -48804.763746724, 1189.40290156698, -47615.360845157, 788.958354218786, 52.8723, 52.8723, 52.8723, 147803.462876669, -580.190472654655, -1085.71737841169, -185.696804280873, -469.157235271409, -50022.9532394572, 4.79535684391045e-07, ]
  - [22200, -48808.1071950913, 1198.36451954165, -47609.7426755497, 794.902801940512, 52.8723, 52.8723, 52.8723, 147803.462876669, -1078.90118567114, -1134.97673107004, -1382.99082642477, -718.735999518607, -50036.2196702164, 6.03067824188202e-07, ]
  - [22300, -48808.0280824981, 1205.99785651476, -47602.0302259833, 799.966170263866, 52.8723, 52.8723, 52.8723, 147803.462876669, -1097.23446176406, -922.762601550612, -1635.07379870063, -733.866985040936, -50033.0531269376, 7.50618208481703e-07, ]
  - [22400, -48798.813695144, 1212.28161701213, -47586.5320781319, 804.134333410081, 52.8723, 52.8723, 52.8723, 147803.462876669, 188.106255182484, 14.2639038889069, 272.474252287305, 277.58060937124, -50023.8259053557, 9.25469579851522e-07, ]
  - [22500, -48788.8211978143, 1212.23174449799, -47576.5894533163, 804.101251822145, 52.8723, 52.8723, 52.8723, 147803.462876669, 607.518458589598, 873.044586941327, 561.847144047832, 387.663644779633, -50037.8625413192, 1.13117778778076e-06, ]
  - [22600, -48798.6677328468, 1193.77380093132, -47604.8939319155, 791.857672493865, 52.8723, 52.8723, 52.8723, 147803.462876669, -139.004251176411, -402.939038733876, 563.417283310101, -577.490998105461, -50026.8554572501, 1.37158052711496e-06, ]
  - [22700, -48793.8060890421, 1214.17299814552, -47579.6330908966, 805.388930102452, 52.8723, 52.8723, 52.8723, 147803.462876669, 956.173290617578, 452.282403838055, 1519.29482437904, 896.942643635641, -50048.8066677565, 1.65080583583745e-06, ]
  - [22800, -48800.619207768, 1210.99979754145, -47589.6194102266, 803.284073015846, 52.8723, 52.8723, 52.8723, 147803.462876669, 136.162573228508, 91.2516765952613, 389.001485651213, -71.7654425609571, -50048.5786459519, 1.97328035457892e-06, ]
  - [22900, -48790.0395024832, 1210.27810485756, -47579.7613976257, 802.805357627322, 52.8723, 52.8723, 52.8723, 147803.462876669, 1773.74197643242, 1439.54526809783, 2102.81009831484, 1778.87056288458, -50046.057343062, 2.343737350267e-06, ]
  - [23000, -48794.764400517, 1208.38784919126, -47586.3765513257, 801.551507483207, 52.8723, 52.8723, 52.8723, 147803.462876669, 1156.91085846286, 955.019622766582, 1086.89146672781, 1428.82148589419, -50053.6958854399, 2.76722450631e-06, ]
  - [23100, -48792.5685674275, 1217.59867960255, -47574.9698878249, 807.661263557204, 52.8723, 52.8723, 52.8723, 147803.462876669, 773.41101728229, 578.2987192907, 225.670464117724, 1516.26386843844, -50083.1679634977, 3.2491114816967e-06, ]
  - [23200, -48788.0439183383, 1229.47221123392, -47558.5717071044, 815.53725071203, 52.8723, 52.8723, 52.8723, 147803.462876669, 1971.70830700917, 2290.87135935428, 2179.44260658023, 1444.810955093, -50051.4734363299, 3.79509724138202e-06, ]
  - [23300, -48784.2576283023, 1203.46897138539, -47580.7886569169, 798.288702479781, 52.8723, 52.8723, 52.8723, 147803.462876669, 1262.32720516368, 1527.95427693265, 1310.44828162515, 948.579056933247, -50046.1268948667, 4.41121716031674e-06, ]
  - [23400, -48802.2844754374, 1214.68505010269, -47587.5994253347, 805.728585965798, 52.8723, 52.8723, 52.8723, 147803.462876669, -288.169161604417, -346.474624501272, -463.170722221401, -54.8621380905755, -50050.6061669426, 5.10384990346721e-06, ]
  - [23500, -48794.7221283998, 1207.97362319824, -47586.7485052016, 801.276741836261, 52.8723, 52.8723, 52.8723, 147803.462876669, 537.636639594363, 118.38956009393, 380.122618425788, 1114.39774026338, -50042.5096335015, 5.87972408415916e-06, ]
  - [23600, -48803.1149698933, 1215.80744182081, -47587.3075280725, 806.473094257775, 52.8723, 52.8723, 52.8723, 147803.462876669, -231.551454507583, -82.6985468434795, -433.536419408898, -178.419397270366, -50025.0431425435, 6.74592470306796e-06, ]
  - [23700, -48807.9811939876, 1207.60249522804, -47600.3786987595, 801.030564101041, 52.8723, 52.8723, 52.8723, 147803.462876669, -840.451906537442, -762.345462849803, -774.357012616051, -984.653244146468, -50024.1745899219, 7.70989937016563e-06, ]
  - [23800, -48812.0103975585, 1207.82408094768, -47604.1863166108, 801.17754701529, 52.8723, 52.8723, 52.8723, 147803.462876669, -243.862736935411, -549.40600833093, 63.4005536836749, -245.582756158978, -50005.8849367632, 8.77946431192315e-06, ]
  - [23900, -48812.0905938418, 1207.83029782476, -47604.2602960171, 801.181670813122, 52.8723, 52.8723, 52.8723, 147803.462876669, -644.343668413062, -750.390218330915, -444.871098940843, -737.769687967428, -50005.6620204101, 9.96281016605489e-06, ]
  - [24000, -48795.0908921387, 1192.4359313499, -47602.6549607888, 790.97023276951, 52.8723, 52.8723, 52.8723, 147803.462876669, 546.157546429447, 937.526112769837, 241.27722988398, 459.669296634522, -49971.9436145478, 1.126850756608e-05, ]
  - [24100, -48805.4279416439, 1204.58162381355, -47600.8463178304, 799.026750476288, 52.8723, 52.8723, 52.8723, 147803.462876669, 116.382171050716, 150.476081956482, 31.2736997419994, 167.396731453664, -49963.1191538088, 1.2705512517964e-05, ]
  - [24200, -48793.1514240861, 1207.88103173931, -47585.2703923468, 801.215323787798, 52.8723, 52.8723, 52.8723, 147803.462876669, 1065.18846368163, 1144.054507556, 1447.56658700705, 603.944296481831, -49952.412896463, 1.42831715710919e-05, ]
  - [24300, -48805.323187982, 1218.52363750698, -47586.7995504751, 808.274809450728, 52.8723, 52.8723, 52.8723, 147803.462876669, -417.270536004263, 49.2279975235243, -1062.11926742831, -238.920338108, -49969.7009757249, 1.60112267858132e-05, ]
  - [24400, -48802.4027453632, 1219.63667316914, -47582.7660721941, 809.01311165518, 52.8723, 52.8723, 52.8723, 147803.462876669, 108.458813493831, 178.211916155882, -464.630113149664, 611.794637475275, -50011.8359662414, 1.78998204997854e-05, ]
  - [24500, -48800.7705311927, 1210.79805162088, -47589.9724795719, 803.150250297525, 52.8723, 52.8723, 52.8723, 147803.462876669, 351.033013671465, 187.672719113903, 171.170440755729, 694.255881144761, -50026.305427352, 1.99594998953344e-05, ]
  - [24600, -48820.100717134, 1217.32770270552, -47602.7730144285, 807.481518336785, 52.8723, 52.8723, 52.8723, 147803.462876669, -1753.53453753997, -1871.76448413276, -1462.73826630404, -1926.10086218312, -50020.0072846855, 2.2201221370035e-05, ]
  - [24700, -48802.643188155, 1209.90932718328, -47592.7338609718, 802.560738897543, 52.8723, 52.8723, 52.8723, 147803.462876669, 495.992330073394, 826.265570705623, 492.210678902256, 169.500740612299, -50016.4827731505, 2.46363547127047e-05, ]
  - [24800, -48806.6907369966, 1197.42065245909, -47609.2700845375, 794.276713153372, 52.8723, 52.8723, 52.8723, 147803.462876669, -643.880075420872, -989.021326554478, 32.521624656346, -975.140524364482, -50043.4576470827, 2.7276687086994e-05, ]
  - [24900, -48797.511738518, 1194.18211992601, -47603.329618592, 792.128519892691, 52.8723, 52.8723, 52.8723, 147803.462876669, 668.611407351014, 868.46217029845, 446.877115329404, 690.494936425192, -50052.8348948861, 3.01344268247409e-05, ]
  - [25000, -48788.4933590728, 1198.42455246059, -47590.0688066122, 794.942623159093, 52.8723, 52.8723, 52.8723, 147803.462876669, 1383.50313878571, 1403.33725987267, 1157.95451909778, 1589.2176373867, -50030.6586551774, 3.322220703125e-05, ]
  - [25100, -48798.7738555329, 1211.59351845738, -47587.1803370755, 803.677901781586, 52.8723, 52.8723, 52.8723, 147803.462876669, 180.367004877787, -163.679334592416, 369.929995835079, 334.850353390699, -50025.7741041794, 3.6553089004642e-05, ]
  - [25200, -48798.9416508633, 1202.50517320735, -47596.4364776559, 797.649392937705, 52.8723, 52.8723, 52.8723, 147803.462876669, 279.671346576554, 448.190020199619, 212.327038002611, 178.496981527427, -50027.1668190199, 4.01405654714096e-05, ]
  - [25300, -48797.7099480368, 1213.50114967134, -47584.2087983655, 804.94327752688, 52.8723, 52.8723, 52.8723, 147803.462876669, 376.930371152458, 590.960753225803, 268.702816155966, 271.127544075602, -50021.0677419171, 4.39985636403039e-05, ]
  - [25400, -48801.9675803655, 1210.42983075015, -47591.5377496153, 802.906000908377, 52.8723, 52.8723, 52.8723, 147803.462876669, 302.090303098915, 593.614062786926, 198.087065692101, 114.569780817715, -50008.502038122, 4.81414480766634e-05, ]
  - [25500, -48809.3417487816, 1219.82735536553, -47589.5143934161, 809.139595550283, 52.8723, 52.8723, 52.8723, 147803.462876669, -203.601246251785, -88.9969967581429, 5.48267832486367, -527.289420322075, -50007.5759895985, 5.25840233992879e-05, ]
  - [25600, -48790.4733106975, 1229.46546792607, -47561.0078427715, 815.532777720534, 52.8723, 52.8723, 52.8723, 147803.462876669, 1475.58533781017, 1385.54717883047, 1608.45707470615, 1432.75175989389, -50001.0035493626, 5.7341536801945e-05, ]
  - [25700, -48799.8340311142, 1223.84702019613, -47575.9870109181, 811.805931864987, 52.8723, 52.8723, 52.8723, 147803.462876669, 334.344321388313, 357.371150421185, 616.142553972794, 29.5192597709562, -50007.4231882139, 6.24296804015908e-05, ]
  - [25800, -48784.5636266455, 1217.03522003075, -47567.5284066148, 807.287507838389, 52.8723, 52.8723, 52.8723, 147803.462876669, 1787.84494255419, 1635.52607985028, 1664.53840368924, 2063.47034412305, -50028.8121547475, 6.78645934153687e-05, ]
  - [25900, -48797.7357272282, 1225.77552146949, -47571.9602057587, 813.085151201629, 52.8723, 52.8723, 52.8723, 147803.462876669, 619.305181135003, 856.491811007617, 368.413758814395, 633.009973582992, -50003.076769241, 7.36628641684442e-05, ]
  - [26000, -48804.9583128814, 1218.63750497859, -47586.3208079028, 808.350340368707, 52.8723, 52.8723, 52.8723, 147803.462876669, -280.495241962351, -335.98467024764, -310.028563237365, -195.472492402045, -49991.850522577, 7.98415319347201e-05, ]
  - [26100, -48796.0276381386, 1213.06619156262, -47582.961446576, 804.654759789823, 52.8723, 52.8723, 52.8723, 147803.462876669, 778.505548199452, 1358.07356432097, 481.604621397027, 495.83845888036, -49999.0203713295, 8.64180886124637e-05, ]
  - [26200, -48798.9111643568, 1199.66884291847, -47599.2423214383, 795.767989694293, 52.8723, 52.8723, 52.8723, 147803.462876669, -48.8743585702172, 144.150699023323, -253.820867814578, -36.9529069193983, -50014.633080842, 9.34104802368714e-05, ]
  - [26300, -48808.0910029799, 1190.60548224109, -47617.4855207388, 789.756053693212, 52.8723, 52.8723, 52.8723, 147803.462876669, -873.968135227568, -1013.32879014014, -654.895632584308, -953.679982958262, -50040.2060095637, 0.000100837108331577, ]
  - [26400, -48789.7180279326, 1209.08802028008, -47580.6300076526, 802.015947101761, 52.8723, 52.8723, 52.8723, 147803.462876669, 1937.0847947134, 1360.54091945195, 2250.73619389854, 2199.9772707897, -50027.7366726068, 0.000108716831101108, ]
  - [26500, -48792.4174733499, 1209.98784140255, -47582.4296319473, 802.612819188536, 52.8723, 52.8723, 52.8723, 147803.462876669, 630.482991991628, 636.840178582897, 1045.22451194752, 209.384285444465, -50028.7492819336, 0.000117068964466276, ]
  - [26600, -48797.2475372912, 1217.74867273444, -47579.4988645567, 807.760757458156, 52.8723, 52.8723, 52.8723, 147803.462876669, 628.721176722126, 575.90642310217, 1024.53074377207, 285.726363292136, -50030.9723912865, 0.000125913282944476, ]
  - [26700, -48800.1146571339, 1192.09120397939, -47608.0234531545, 790.741567160458, 52.8723, 52.8723, 52.8723, 147803.462876669, 16.5884472492874, 45.855295742127, 140.294127038288, -136.384081032553, -50013.404342499, 0.000135270020376872, ]
  - [26800, -48800.1434830272, 1209.65765383438, -47590.4858291928, 802.393798165444, 52.8723, 52.8723, 52.8723, 147803.462876669, -4.77303646842006, -143.783222070329, 169.225507396671, -39.761394731599, -50034.5872345554, 0.000145159870504403, ]
  - [26900, -48803.8371510176, 1205.0168249533, -47598.8203260643, 799.31542942143, 52.8723, 52.8723, 52.8723, 147803.462876669, 124.927655581518, 481.380258311127, 286.416950770406, -393.014242336983, -50025.6840197492, 0.000155603987394582, ]
  - [27000, -48807.4655915162, 1210.03600576565, -47597.4295857505, 802.644767720523, 52.8723, 52.8723, 52.8723, 147803.462876669, -271.63052255857, -56.4634486871061, -589.974024081854, -168.454094906751, -50018.5446566345, 0.00016662398572099, ]
  - [27100, -48811.7857766133, 1208.34059388173, -47603.4451827316, 801.520161947405, 52.8723, 52.8723, 52.8723, 147803.462876669, -1021.48613256789, -833.194571974098, -1295.45893128738, -935.804894442188, -50040.6000715814, 0.000178241940897419, ]
  - [27200, -48806.4244783407, 1212.84358318194, -47593.5808951587, 804.507098520939, 52.8723, 52.8723, 52.8723, 147803.462876669, -95.438242411301, 74.9592081089425, -477.522205677397, 116.24827033455, -50005.9962198033, 0.000190480389068545, ]
  - [27300, -48795.5521795239, 1220.74692116297, -47574.8052583609, 809.749564734979, 52.8723, 52.8723, 52.8723, 147803.462876669, 957.147348463722, 1382.552147836, 772.302675649457, 716.587221905714, -50004.1189604145, 0.000203362326959055, ]
  - [27400, -48802.7692384264, 1206.01964012056, -47596.7495983059, 799.980619831592, 52.8723, 52.8723, 52.8723, 147803.462876669, -315.558445087973, -252.839055096559, -564.65153529671, -129.18474487065, -50006.7573312275, 0.000216911211583103, ]
  - [27500, -48795.6606922945, 1198.17859826378, -47597.4820940307, 794.779476072371, 52.8723, 52.8723, 52.8723, 147803.462876669, 829.195735818166, 675.136533948526, 326.578433611309, 1485.87223989467, -49999.6106258645, 0.000231150959815979, ]
  - [27600, -48793.8865880685, 1207.23337031802, -47586.6532177504, 800.785715041796, 52.8723, 52.8723, 52.8723, 147803.462876669, 290.083869533703, 529.665962092067, -2.85813171449841, 343.443778223544, -50018.480793934, 0.00024610594782986, ]
  - [27700, -48809.3680931197, 1203.56690446969, -47605.80118865, 798.353663751455, 52.8723, 52.8723, 52.8723, 147803.462876669, -901.878212785528, -725.317713589524, -1619.64832789334, -360.668596873714, -50007.4180864672, 0.000261801010395495, ]
  - [27800, -48803.9451682765, 1207.76078393856, -47596.184384338, 801.135560650467, 52.8723, 52.8723, 52.8723, 147803.462876669, -134.587946820518, -333.379351409294, 286.27326356774, -356.657752620003, -50015.352995698, 0.000278261440051671, ]
  - [27900, -48810.1213021517, 1206.93198403617, -47603.1893181156, 800.585798575646, 52.8723, 52.8723, 52.8723, 147803.462876669, -833.901729494631, -1063.1125977985, -933.243032591591, -505.349558093802, -50041.825760743, 0.000295512986144304, ]
  - [28000, -48806.2495548495, 1200.52192034078, -47605.7276345087, 796.333855607551, 52.8723, 52.8723, 52.8723, 147803.462876669, -463.265745377779, -439.559312593928, -194.264821715941, -755.973101823472, -50045.5695138273, 0.00031358185373696, ]
  - [28100, -48800.9170583463, 1187.60731685149, -47613.3097414948, 787.767301498027, 52.8723, 52.8723, 52.8723, 147803.462876669, -143.248838376217, -581.902011998018, 225.114962176724, -72.9594653073614, -50048.997517724, 0.000332494702394641, ]
  - [28200, -48813.5942701487, 1191.56480172379, -47622.0294684249, 790.392392413457, 52.8723, 52.8723, 52.8723, 147803.462876669, -1244.06514138258, -1254.6393826518, -1690.15121206507, -787.404829430858, -50027.2958119749, 0.000352278644842627, ]
  - [28300, -48804.772307126, 1219.48516550322, -47585.2871416228, 808.912613128902, 52.8723, 52.8723, 52.8723, 147803.462876669, -396.682443321552, 224.580727973152, -1071.82769239205, -342.800365545751, -50030.0089272159, 0.000372961245502164, ]
  - [28400, -48812.2187439005, 1216.0930450191, -47596.1256988814, 806.662541440881, 52.8723, 52.8723, 52.8723, 147803.462876669, -702.648967315577, -417.895755248727, -972.575024503385, -717.476122194617, -50008.1382002703, 0.000394570518904788, ]
  - [28500, -48806.6693327461, 1210.38842622535, -47596.2809065208, 802.878536332915, 52.8723, 52.8723, 52.8723, 147803.462876669, -837.861020558651, -892.670197705335, -1255.10969151278, -365.803172457835, -50008.4918526231, 0.000417134927987054, ]
  - [28600, -48798.5726801835, 1201.67558235818, -47596.8970978253, 797.099106209657, 52.8723, 52.8723, 52.8723, 147803.462876669, 428.156521462937, 599.040945607115, -23.6177353074427, 709.04635408914, -50001.6214338731, 0.000440683382267422, ]
  - [28700, -48798.0180419298, 1196.17578733731, -47601.8422545924, 793.450965430369, 52.8723, 52.8723, 52.8723, 147803.462876669, 365.552876767387, 62.5043271653349, 934.192106955816, 99.9621961810133, -50002.13898094, 0.000465245235907057, ]
  - [28800, -48810.4873055323, 1218.36563666416, -47592.1216688681, 808.170003850584, 52.8723, 52.8723, 52.8723, 147803.462876669, -292.377372135773, 68.2217001443979, -207.259960797077, -738.093855754643, -49979.9278426505, 0.000490850285656287, ]
  - [28900, -48799.3827423798, 1204.09210266816, -47595.2906397116, 798.702039819612, 52.8723, 52.8723, 52.8723, 147803.462876669, 152.656832894377, -115.34342407893, -120.185122733403, 693.499045495464, -50013.5165926887, 0.000517528768688429, ]
  - [29000, -48807.7698261535, 1216.02176965387, -47591.7480564996, 806.615262848598, 52.8723, 52.8723, 52.8723, 147803.462876669, -750.279774638226, -917.982977528452, -904.254584842714, -428.601761543515, -50006.9794049596, 0.00054531136032273, ]
  - [29100, -48814.0847679343, 1214.2692140381, -47599.8155538962, 805.452752321279, 52.8723, 52.8723, 52.8723, 147803.462876669, -1130.93871289583, -991.577967681385, -1043.30578428398, -1357.93238672211, -49987.175990886, 0.000574229171638096, ]
  - [29200, -48805.0715423999, 1195.03305926203, -47610.0384831379, 792.69296756404, 52.8723, 52.8723, 52.8723, 147803.462876669, -275.777924508276, -27.6313445272693, -427.061636004848, -372.640792992708, -49991.5867523214, 0.000604313746979337, ]
  - [29300, -48811.3188113468, 1202.50843994677, -47608.8103714001, 797.651559841247, 52.8723, 52.8723, 52.8723, 147803.462876669, -861.433809603007, -1168.32940236715, -1020.74382687308, -395.228199568792, -50004.6760376153, 0.000635597061357593, ]
  - [29400, -48793.7874032259, 1200.0634218238, -47593.7239814021, 796.029722975206, 52.8723, 52.8723, 52.8723, 147803.462876669, 1029.50603199099, 771.071803610119, 907.678355740616, 1409.76793662222, -50020.8775202602, 0.000668111517746635, ]
  - [29500, -48808.4510771936, 1202.37472512325, -47606.0763520703, 797.562863717369, 52.8723, 52.8723, 52.8723, 147803.462876669, -227.026750177663, -481.151642146122, -6.06017833959238, -193.868430047272, -50014.7646593582, 0.000701889944276683, ]
  - [29600, -48797.700843889, 1209.46138104258, -47588.2394628464, 802.26360589957, 52.8723, 52.8723, 52.8723, 147803.462876669, 290.304606357889, 465.651916166331, -233.824025187746, 639.085928095084, -50022.2652085437, 0.000736965591327429, ]
  - [29700, -48810.0102325026, 1216.11010173614, -47593.9001307665, 806.673855554366, 52.8723, 52.8723, 52.8723, 147803.462876669, -1449.22073823825, -1226.00827017152, -1472.32934527603, -1649.32459926719, -50030.6238683439, 0.000773372128521878, ]
  - [29800, -48799.8798653407, 1195.10246597412, -47604.7773993666, 792.739006635639, 52.8723, 52.8723, 52.8723, 147803.462876669, -333.516443331031, -276.362537857815, 26.7402354486161, -750.927027583893, -50033.6969599384, 0.00081114364162266, ]
  - [29900, -48791.4064986384, 1174.75455147012, -47616.6519471683, 779.24176603053, 52.8723, 52.8723, 52.8723, 147803.462876669, 1333.40424238368, 1786.46307414442, 1431.46989436256, 782.279758644055, -50013.7447738341, 0.000850314629332433, ]
  - [30000, -48799.5984358985, 1196.14123603713, -47603.4571998614, 793.428046756733, 52.8723, 52.8723, 52.8723, 147803.462876669, 281.099384481785, 368.798306546519, 482.59389639959, -8.09404950075536, -49992.5864379524, 0.000890920000000001, ]
  - [30100, -48808.1138625081, 1214.87634602389, -47593.2375164842, 805.85547695872, 52.8723, 52.8723, 52.8723, 147803.462876669, -1066.7764048273, -898.84202179564, -690.647807618853, -1610.83938506741, -49983.8304869178, 0.000932995068233718, ]
  - [30200, -48797.9038112051, 1214.07833610155, -47583.8254751036, 805.32613858721, 52.8723, 52.8723, 52.8723, 147803.462876669, 1088.84908077152, 937.228592820255, 969.244945036514, 1360.07370445779, -49969.5446760043, 0.000976575551423828, ]
  - [30300, -48795.3906366794, 1199.80621681261, -47595.5844198668, 795.859112964032, 52.8723, 52.8723, 52.8723, 147803.462876669, 1359.42460628152, 1736.21134605432, 896.486337674879, 1445.57613511538, -49971.9388490535, 0.00102169756617526, ]
  - [30400, -48803.7525549013, 1210.56606667939, -47593.1864882219, 802.996369339779, 52.8723, 52.8723, 52.8723, 147803.462876669, -5.32022113024305, -369.769245741201, -72.3101126856412, 426.118695036115, -50006.3574417942, 0.00106839762465251, ]
  - [30500, -48792.4282526597, 1220.43640378184, -47571.9918488778, 809.543591400255, 52.8723, 52.8723, 52.8723, 147803.462876669, 910.23832017959, 1095.37572246135, 923.806111206806, 711.533126870617, -50021.2641857126, 0.00111671263083812, ]
  - [30600, -48798.7561555531, 1224.82911388566, -47573.9270416675, 812.457377241454, 52.8723, 52.8723, 52.8723, 147803.462876669, 480.278436156401, 951.81369606044, 614.277095583786, -125.255483175021, -50005.5216228735, 0.00116667987670637, ]
  - [30700, -48811.6316183467, 1203.16271147126, -47608.4689068755, 798.085553221029, 52.8723, 52.8723, 52.8723, 147803.462876669, -1179.74471980927, -1621.87067034472, -775.870090926051, -1141.49339815704, -49996.2021386437, 0.00121833703831365, ]
  - [30800, -48811.9933936907, 1201.30807298678, -47610.685320704, 796.85532877441, 52.8723, 52.8723, 52.8723, 147803.462876669, -1523.88396462027, -1582.54895687322, -1410.71454560209, -1578.38839138552, -49997.8333876703, 0.00127172217180712, ]
  - [30900, -48821.7695025682, 1200.53220912883, -47621.2372934394, 796.340680397765, 52.8723, 52.8723, 52.8723, 147803.462876669, -2771.59113380403, -3269.95436127408, -2778.59906024637, -2266.21997989164, -49972.4127170502, 0.00132687370935312, ]
  - [31000, -48814.0419571411, 1209.68984964515, -47604.352107496, 802.415154388677, 52.8723, 52.8723, 52.8723, 147803.462876669, -626.908511843399, -888.565530214477, -598.708328874472, -393.451676441254, -49956.4297957533, 0.00138383045498687, ]
  - [31100, -48793.8229528936, 1201.42914710483, -47592.3938057888, 796.935640027048, 52.8723, 52.8723, 52.8723, 147803.462876669, 965.443821459392, 1203.75285042477, 698.700955987372, 993.877657966031, -49989.2195076288, 0.00144263158038501, ]
  - [31200, -48797.422823082, 1199.23210499403, -47598.190718088, 795.478291364449, 52.8723, 52.8723, 52.8723, 147803.462876669, 599.270558841577, 702.482506029546, 485.601945810597, 609.727224684593, -49973.520514414, 0.00150331662056234, ]
  - [31300, -48820.0959692433, 1217.84246202173, -47602.2535072215, 807.822970053777, 52.8723, 52.8723, 52.8723, 147803.462876669, -1907.50388629306, -1920.39806395577, -1700.21356556621, -2101.9000293572, -49973.2822784346, 0.00156592546949443, ]
  - [31400, -48812.8498627645, 1196.97229684728, -47615.8775659173, 793.979308543774, 52.8723, 52.8723, 52.8723, 147803.462876669, -1358.96195382823, -1152.84279849258, -1091.32379385342, -1832.71926913871, -49993.1206333279, 0.00163049837566735, ]
  - [31500, -48799.9407728983, 1211.37126152452, -47588.5695113738, 803.530473636146, 52.8723, 52.8723, 52.8723, 147803.462876669, 888.263250260486, 1180.72474584015, 1105.12481937125, 378.940185570055, -49985.0443272142, 0.00169707593755625, ]
  - [31600, -48800.8422227383, 1201.89269772678, -47598.9495250115, 797.243123837039, 52.8723, 52.8723, 52.8723, 147803.462876669, 297.140467465144, 677.678470362891, 347.72713948146, -133.984207448918, -50011.4004181358, 0.00176569909903396, ]
  - [31700, -48802.9089531256, 1196.73723746299, -47606.1717156626, 793.823388237269, 52.8723, 52.8723, 52.8723, 147803.462876669, 576.255879228904, 622.731697485709, -2.9364438081145, 1108.97238400912, -50001.0757391708, 0.0018364091447113, ]
[...]
  - [232600, -48798.7439088099, 1220.17267971398, -47578.5712290959, 809.368657148561, 52.8723, 52.8723, 52.8723, 147803.462876669, 231.089770398755, -269.508056150241, 437.042170451063, 525.735196895443, -50090.6749753609, 0.000216911211583102, ]
  - [232700, -48791.1972565969, 1221.99346045135, -47569.2037961455, 810.576422971274, 52.8723, 52.8723, 52.8723, 147803.462876669, 676.882530687517, 539.517200763099, 644.834748060722, 846.295643238741, -50096.7983003125, 0.000203362326959055, ]
  - [232800, -48783.6990036705, 1211.13815866578, -47572.5608450047, 803.375851138119, 52.8723, 52.8723, 52.8723, 147803.462876669, 2006.50956833352, 1798.40761185297, 2145.69147879716, 2075.42961435042, -50060.9237035268, 0.000190480389068545, ]
  - [232900, -48795.2498111506, 1204.23684619864, -47591.012964952, 798.798051538966, 52.8723, 52.8723, 52.8723, 147803.462876669, 425.074121542167, 208.891508610251, 594.630929036997, 471.699926979253, -50066.1771388325, 0.000178241940897418, ]
  - [233000, -48802.2324500063, 1207.90566617388, -47594.3267838324, 801.231664375949, 52.8723, 52.8723, 52.8723, 147803.462876669, -72.1663561478908, -334.493943699477, -364.575646077287, 482.57052133309, -50043.0620118577, 0.000166623985720989, ]
  - [233100, -48807.2697440332, 1208.18660519669, -47599.0831388365, 801.41801770397, 52.8723, 52.8723, 52.8723, 147803.462876669, -637.092548692246, -667.750899162981, -840.801667937307, -402.725078976454, -50023.6031910898, 0.000155603987394581, ]
  - [233200, -48806.5562996809, 1208.61009377481, -47597.9462059061, 801.698927437071, 52.8723, 52.8723, 52.8723, 147803.462876669, -770.213199271459, -913.765470471713, -500.173162143607, -896.700965199055, -50027.1268928145, 0.000145159870504403, ]
  - [233300, -48794.4838319392, 1212.00605241192, -47582.4777795273, 803.951545060417, 52.8723, 52.8723, 52.8723, 147803.462876669, 940.273769646203, 692.599145038186, 428.366423288962, 1699.85574061146, -50014.8995947259, 0.000135270020376871, ]
  - [233400, -48799.9071284527, 1214.92892075991, -47584.9782076928, 805.890350992698, 52.8723, 52.8723, 52.8723, 147803.462876669, 733.544830907141, 1011.38354257859, 425.795862738573, 763.455087404261, -50013.6559986534, 0.000125913282944476, ]
  - [233500, -48806.046599219, 1221.14625250195, -47584.900346717, 810.014450414661, 52.8723, 52.8723, 52.8723, 147803.462876669, -74.1862242650629, 555.587455258195, -827.351886761932, 49.205758708552, -49998.2045825333, 0.000117068964466275, ]
  - [233600, -48812.5229487748, 1214.02090937809, -47598.5020393967, 805.288046118152, 52.8723, 52.8723, 52.8723, 147803.462876669, -1282.19112619371, -1213.50739501319, -1534.08423741271, -1098.98174615522, -49992.5971370384, 0.000108716831101108, ]
  - [233700, -48817.259028263, 1226.1774195548, -47591.0816087082, 813.351739463295, 52.8723, 52.8723, 52.8723, 147803.462876669, -1554.12496432659, -1273.08516108541, -1972.06186824336, -1417.227863651, -49988.2987198016, 0.000100837108331576, ]
  - [233800, -48813.608599833, 1210.86950932349, -47602.7390905095, 803.197649838401, 52.8723, 52.8723, 52.8723, 147803.462876669, -1211.39561712735, -1272.61564764437, -1180.45904466436, -1181.11215907333, -50003.0866093444, 9.34104802368709e-05, ]
  - [233900, -48808.9393501647, 1216.62587170045, -47592.3134784642, 807.015977657532, 52.8723, 52.8723, 52.8723, 147803.462876669, -1065.95414355348, -930.908517881673, -1031.97276536173, -1234.98114741704, -49997.7370749403, 8.64180886124633e-05, ]
  - [234000, -48796.717200122, 1215.48127339946, -47581.2359267225, 806.256739227392, 52.8723, 52.8723, 52.8723, 147803.462876669, 830.635987446407, 422.599221316647, 1218.42858711872, 850.880153903858, -49985.9541691765, 7.98415319347196e-05, ]
  - [234100, -48809.6972550137, 1217.02744941483, -47592.6698055989, 807.282353409779, 52.8723, 52.8723, 52.8723, 147803.462876669, -1496.09474755251, -2360.16279576902, -970.776123974155, -1157.34532291435, -50013.8921370048, 7.36628641684439e-05, ]
  - [234200, -48793.5160798092, 1219.42373438902, -47574.0923454201, 808.871864455186, 52.8723, 52.8723, 52.8723, 147803.462876669, 1439.9004585492, 1826.53972250697, 1650.08610722042, 843.075545920193, -49993.6254142477, 6.78645934153684e-05, ]
  - [234300, -48799.621996126, 1207.4614508608, -47592.1605452651, 800.937006121908, 52.8723, 52.8723, 52.8723, 147803.462876669, 147.744480861326, -180.810748123487, 440.752240866717, 183.291949840748, -49988.6185002653, 6.24296804015905e-05, ]
  - [234400, -48796.1560464279, 1201.48209741397, -47594.6739490139, 796.970763187329, 52.8723, 52.8723, 52.8723, 147803.462876669, 693.668664309812, 327.783268607948, 989.053012662785, 764.169711658706, -50015.9010733327, 5.73415368019447e-05, ]
  - [234500, -48809.6569225146, 1231.82774007513, -47577.8291824395, 817.099727275209, 52.8723, 52.8723, 52.8723, 147803.462876669, 70.2644612898985, -305.534591051019, 106.422665172958, 409.905309747761, -50006.6000966497, 5.25840233992875e-05, ]
  - [234600, -48798.0456805777, 1221.86796318376, -47576.1777173939, 810.493177741619, 52.8723, 52.8723, 52.8723, 147803.462876669, 486.566920580538, 29.0567020474585, 660.845271429135, 769.798788265024, -50011.4439809415, 4.81414480766631e-05, ]
  - [234700, -48796.4069653791, 1203.47354617564, -47592.9334192035, 798.291737043579, 52.8723, 52.8723, 52.8723, 147803.462876669, 1213.05267072759, 1297.29040498735, 1238.43215633979, 1103.43545085564, -50022.0808860594, 4.39985636403036e-05, ]
  - [234800, -48802.0364828058, 1198.48499501716, -47603.5514877886, 794.982716099754, 52.8723, 52.8723, 52.8723, 147803.462876669, -332.396822492331, -259.351032164496, -333.06161213669, -404.777823175803, -50008.0661523785, 4.01405654714093e-05, ]
  - [234900, -48810.4942994098, 1188.2442517716, -47622.2500476382, 788.1897951086, 52.8723, 52.8723, 52.8723, 147803.462876669, -1100.33134999482, -962.697656819691, -917.959382154533, -1420.33701101024, -50007.3690793077, 3.65530890046418e-05, ]
  - [235000, -48801.4513226207, 1202.57991749836, -47598.8714051224, 797.698972548401, 52.8723, 52.8723, 52.8723, 147803.462876669, -303.114915224968, 497.916691935206, -769.543539049405, -637.717898560707, -50011.4135720396, 3.32222070312498e-05, ]
  - [235100, -48801.3973994788, 1195.80714739736, -47605.5902520814, 793.206438062951, 52.8723, 52.8723, 52.8723, 147803.462876669, -15.8824297438879, -23.5667418832956, -1.31829692638943, -22.7622504219798, -49999.107621866, 3.01344268247407e-05, ]
  - [235200, -48802.6306943133, 1200.7525045581, -47601.8781897552, 796.486807432677, 52.8723, 52.8723, 52.8723, 147803.462876669, -181.250907465037, 138.510057222656, -474.204211194005, -208.058568423758, -50004.7185565196, 2.72766870869938e-05, ]
  - [235300, -48794.6290839738, 1197.86659261126, -47596.7624913625, 794.572515532936, 52.8723, 52.8723, 52.8723, 147803.462876669, 374.729786684797, 162.414869625268, -44.567259740193, 1006.34175016932, -50004.8650097036, 2.46363547127045e-05, ]
  - [235400, -48793.4939377505, 1202.10311044068, -47591.3908273098, 797.3826954391, 52.8723, 52.8723, 52.8723, 147803.462876669, 609.683304835046, 643.515142444011, 157.041989094945, 1028.49278296618, -49980.5900773583, 2.22012213700348e-05, ]
  - [235500, -48809.6300936866, 1210.83364535675, -47598.7964483298, 803.173860442783, 52.8723, 52.8723, 52.8723, 147803.462876669, -876.923449020315, -933.064545393938, -862.879055922821, -834.826745744185, -49988.5508214642, 1.99594998953343e-05, ]
  - [235600, -48802.8825093328, 1201.48306771827, -47601.3994416146, 796.971406812533, 52.8723, 52.8723, 52.8723, 147803.462876669, 203.248881898034, 211.209795267578, 185.474418368487, 213.06243205804, -49962.759932945, 1.78998204997852e-05, ]
  - [235700, -48810.305975141, 1203.89822621409, -47606.4077489269, 798.573437099769, 52.8723, 52.8723, 52.8723, 147803.462876669, -1201.67451945321, -958.179407945175, -1168.76230022215, -1478.08185019231, -49958.1783222817, 1.6011226785813e-05, ]
  - [235800, -48803.8292709421, 1203.52531062279, -47600.3039603193, 798.326073594282, 52.8723, 52.8723, 52.8723, 147803.462876669, 223.715311053932, 380.123819643005, 353.718940967319, -62.6968274485255, -49959.2406020236, 1.42831715710918e-05, ]
  - [235900, -48801.3535780616, 1207.52267579976, -47593.8309022618, 800.977618034836, 52.8723, 52.8723, 52.8723, 147803.462876669, 307.324749047206, 403.374492984196, -64.5113193617792, 583.111073519197, -49970.3051875083, 1.27055125179639e-05, ]
  - [236000, -48806.3073916272, 1212.11866809743, -47594.1887235298, 804.026245639827, 52.8723, 52.8723, 52.8723, 147803.462876669, -250.577641458131, -294.669523560427, -917.041931059074, 459.978530245115, -49965.8628076324, 1.12685075660799e-05, ]
  - [236100, -48797.4262438235, 1197.6542525142, -47599.7719913093, 794.431665453209, 52.8723, 52.8723, 52.8723, 147803.462876669, 13.4388943401729, 79.3209810400585, 289.77794280282, -328.782240822363, -49945.9740939682, 9.96281016605479e-06, ]
  - [236200, -48810.8860186818, 1207.05048202781, -47603.835536654, 800.664401024267, 52.8723, 52.8723, 52.8723, 147803.462876669, -955.010637403219, -1091.26564229323, -887.160904096633, -886.605365819795, -49964.0129129052, 8.77946431192305e-06, ]
  - [236300, -48811.7277439482, 1210.77515029329, -47600.9525936549, 803.135059319176, 52.8723, 52.8723, 52.8723, 147803.462876669, -1137.1427287818, -897.022674749884, -1064.29119086304, -1450.11432073248, -49969.8458812667, 7.70989937016554e-06, ]
  - [236400, -48810.3045307871, 1213.90676298853, -47596.3977677986, 805.212330187467, 52.8723, 52.8723, 52.8723, 147803.462876669, -301.634606092025, -572.707696712459, 64.334726987474, -396.530848551084, -49970.2955104808, 6.74592470306788e-06, ]
  - [236500, -48788.8673287771, 1207.09861593694, -47581.7687128401, 800.696329355433, 52.8723, 52.8723, 52.8723, 147803.462876669, 1367.34901868031, 827.79160879225, 1949.0752803752, 1325.18016687347, -49973.2629650398, 5.87972408415909e-06, ]
  - [236600, -48799.2735091642, 1215.07305274103, -47584.2004564232, 805.98595705727, 52.8723, 52.8723, 52.8723, 147803.462876669, -62.533126322205, -183.861128401403, 248.062914024747, -251.801164589952, -49969.1063820939, 5.10384990346715e-06, ]
  - [236700, -48783.7380102283, 1221.62140096655, -47562.1166092618, 810.329627340952, 52.8723, 52.8723, 52.8723, 147803.462876669, 2148.2577676311, 1877.14252891654, 2181.85258996712, 2385.77818400964, -49967.8587317031, 4.41121716031669e-06, ]
  - [236800, -48803.3282065602, 1209.69517471572, -47593.6330318444, 802.418686630703, 52.8723, 52.8723, 52.8723, 147803.462876669, 8.0673728549875, 207.835494945157, -250.801500082278, 67.1681237020864, -49955.2099524948, 3.79509724138197e-06, ]
  - [236900, -48805.0181970234, 1193.59705291526, -47611.4211441082, 791.740431461679, 52.8723, 52.8723, 52.8723, 147803.462876669, -316.725304577815, -0.819106745275214, -897.473534287959, -51.8832727002128, -49967.6222574299, 3.24911148169665e-06, ]
  - [237000, -48813.3538641891, 1199.14296170882, -47614.2109024803, 795.41916056908, 52.8723, 52.8723, 52.8723, 147803.462876669, -1486.24817169188, -2032.34932503947, -1270.13314124424, -1156.26204879192, -49973.7754006939, 2.76722450630996e-06, ]
  - [237100, -48800.5247197509, 1199.38873612941, -47601.1359836215, 795.582188406086, 52.8723, 52.8723, 52.8723, 147803.462876669, 272.902539492974, 170.895988638514, 22.0563720156047, 625.755257824809, -49981.7381850791, 2.34373735026696e-06, ]
  - [237200, -48811.4193019422, 1203.58119879324, -47607.8381031489, 798.363145505673, 52.8723, 52.8723, 52.8723, 147803.462876669, -1280.69047253097, -1430.1471534185, -1339.37183421188, -1072.55242996254, -49982.82062026, 1.97328035457889e-06, ]
  - [237300, -48798.0868466164, 1203.74757036548, -47594.3392762509, 798.473503603544, 52.8723, 52.8723, 52.8723, 147803.462876669, 232.692073448489, 194.694903641711, -196.615458785285, 699.996775489041, -49996.085841239, 1.65080583583743e-06, ]
  - [237400, -48799.0093534696, 1209.64884025141, -47589.3605132182, 802.387951912751, 52.8723, 52.8723, 52.8723, 147803.462876669, 379.475825299265, 514.182443696957, 108.246504756993, 515.998527443843, -50028.7397359984, 1.37158052711493e-06, ]
  - [237500, -48795.472127168, 1206.10445883802, -47589.36766833, 800.036882041518, 52.8723, 52.8723, 52.8723, 147803.462876669, 637.359841041548, 600.196506165079, 1070.38898706426, 241.494029895305, -50007.6163362374, 1.13117778778074e-06, ]
  - [237600, -48804.0635267304, 1209.66852728037, -47594.39499945, 802.401010772747, 52.8723, 52.8723, 52.8723, 147803.462876669, -345.892956557175, 190.442367954503, -851.768020704434, -376.353216921594, -49982.687359921, 9.25469579851505e-07, ]
  - [237700, -48819.316792582, 1222.03011382539, -47597.2866787566, 810.600735998943, 52.8723, 52.8723, 52.8723, 147803.462876669, -1574.87428188663, -1092.90183461747, -1344.37732945538, -2287.34368158704, -49974.3087623072, 7.50618208481688e-07, ]
  - [237800, -48796.9143248941, 1213.26935240241, -47583.6449724916, 804.789521056662, 52.8723, 52.8723, 52.8723, 147803.462876669, 248.619113789885, 456.509147924165, 748.919863922296, -459.571670476807, -49970.8876355672, 6.03067824188189e-07, ]
  - [237900, -48784.7561779165, 1205.09288935439, -47579.6632885621, 799.365884691565, 52.8723, 52.8723, 52.8723, 147803.462876669, 2028.67358943081, 1963.52479365045, 2139.23714334945, 1983.25883129253, -49976.9794856541, 4.79535684391034e-07, ]
  - [238000, -48812.0745927343, 1212.14153280602, -47599.9330599283, 804.041412327951, 52.8723, 52.8723, 52.8723, 147803.462876669, -1565.19925745555, -1590.9542593248, -1500.48838985344, -1604.15512318841, -49985.0809049154, 3.77003171839991e-07, ]
  - [238100, -48803.9392778501, 1220.68398974591, -47583.2552881042, 809.707820875804, 52.8723, 52.8723, 52.8723, 147803.462876669, -325.062321010211, -167.865679582088, -470.625093213706, -336.696190234848, -49978.7205896013, 2.92706567484834e-07, ]
  - [238200, -48809.1893323062, 1197.71323804984, -47611.4760942564, 794.470791918313, 52.8723, 52.8723, 52.8723, 147803.462876669, -793.769360974766, -869.943517813784, -432.51835696154, -1078.84620814897, -49968.4596510154, 2.24127575334843e-07, ]
  - [238300, -48800.5039717023, 1197.21195624468, -47603.2920154576, 794.138280144984, 52.8723, 52.8723, 52.8723, 147803.462876669, 149.150641619029, 390.800633914048, 65.4526100147687, -8.80131907172663, -49988.1944061321, 1.68983596840973e-07, ]
  - [238400, -48809.6827144987, 1215.45098136095, -47594.2317331377, 806.23664582017, 52.8723, 52.8723, 52.8723, 147803.462876669, -967.595664871665, -1235.98714466026, -809.515563500761, -857.284286453974, -49984.2898650799, 1.25217752321901e-07, ]
  - [238500, -48804.4631423566, 1207.72099270583, -47596.7421496508, 801.109166208816, 52.8723, 52.8723, 52.8723, 147803.462876669, -287.523637362497, -767.078789436301, -8.71745298414034, -86.7746696670543, -49983.1532649128, 9.09886469429854e-08, ]
  - [238600, -48812.9961263425, 1195.25906216632, -47617.7370641762, 792.842880498659, 52.8723, 52.8723, 52.8723, 147803.462876669, -1045.46705861537, -1253.49298271909, -800.459283912715, -1082.44890921432, -49970.0521702912, 6.46598787448784e-08, ]
  - [238700, -48796.3860754902, 1207.97247844952, -47588.4135970407, 801.275982498056, 52.8723, 52.8723, 52.8723, 147803.462876669, 408.379615420839, 774.216334395181, 700.839422717892, -249.916910850557, -49972.4724749054, 4.47892862063161e-08, ]
  - [238800, -48792.9089528847, 1213.33660200585, -47579.5723508789, 804.834129268387, 52.8723, 52.8723, 52.8723, 147803.462876669, 1236.28249163045, 1354.67820602393, 933.474040019803, 1420.69522884762, -49971.7990598905, 3.01179328132691e-08, ]
  - [238900, -48799.0451086341, 1228.75716510544, -47570.2879435287, 815.062944136882, 52.8723, 52.8723, 52.8723, 147803.462876669, 364.42927616588, 414.87857584457, 882.735114027094, -204.325861374022, -49969.2698443158, 1.95588260943479e-08, ]
  - [239000, -48803.4986613284, 1206.72369405028, -47596.7749672782, 800.447635027997, 52.8723, 52.8723, 52.8723, 147803.462876669, -656.675969907308, -1002.61116150359, -489.005950745183, -478.410797473147, -49991.196724699, 1.21853685699994e-08, ]
  - [239100, -48806.5848488457, 1196.42721904559, -47610.1576298002, 793.617745876677, 52.8723, 52.8723, 52.8723, 147803.462876669, -103.72861753577, -58.2095308922253, -260.292486791587, 7.31616507650023, -49998.3632747896, 7.21953805066191e-09, ]
  - [239200, -48814.6148831006, 1205.26419632268, -47609.3506867779, 799.479516551373, 52.8723, 52.8723, 52.8723, 147803.462876669, -632.447484662173, -209.731858326098, -1358.06811094907, -329.542484711353, -50001.077248184, 4.01979470665194e-09, ]
  - [239300, -48805.1757787283, 1208.45657922544, -47596.7191995028, 801.597097698751, 52.8723, 52.8723, 52.8723, 147803.462876669, -269.529843666499, -155.645429475954, -446.252392549216, -206.691708974326, -50000.3182744862, 2.06871232013228e-09, ]
  - [239400, -48803.1791383737, 1213.98848508692, -47589.1906532868, 805.266538338603, 52.8723, 52.8723, 52.8723, 147803.462876669, -26.902469287574, -509.311167821955, 1102.19506973271, -673.591309773478, -50004.8151595282, 9.60331117066315e-10, ]
  - [239500, -48775.8109845568, 1209.50007653764, -47566.3109080191, 802.289273513171, 52.8723, 52.8723, 52.8723, 147803.462876669, 2538.58952250157, 2864.32944204273, 2824.72914314242, 1926.70998231956, -50016.8479952932, 3.87229564589803e-10, ]
  - [239600, -48797.2003078563, 1226.63805698421, -47570.562250872, 813.657290885541, 52.8723, 52.8723, 52.8723, 147803.462876669, 751.518787604218, 337.394523552689, 1235.61622677914, 681.545612480829, -50024.2244485538, 1.27312506734493e-10, ]
  - [239700, -48794.6995395423, 1208.83075664901, -47585.8687828932, 801.84529820667, 52.8723, 52.8723, 52.8723, 147803.462876669, 1064.06185461391, 1353.3240479086, 784.772148998365, 1054.08936693477, -50015.5786158632, 3.03129989146573e-11, ]
  - [239800, -48803.8350681639, 1212.64409059835, -47591.1909775655, 804.374770492972, 52.8723, 52.8723, 52.8723, 147803.462876669, -478.870602348676, -214.838504586049, -833.844176773723, -387.929125686258, -50017.4036316208, 4.00518903939475e-12, ]
  - [239900, -48807.8578544979, 1205.12361006068, -47602.7342444373, 799.386262444001, 52.8723, 52.8723, 52.8723, 147803.462876669, -406.831389961761, -276.174716448799, -599.25946604038, -345.059987396106, -50001.2080950996, 1.25580539685001e-13, ]
  - [240000, -48805.3687243869, 1191.59570104606, -47613.7730233409, 790.412888645988, 52.8723, 52.8723, 52.8723, 147803.462876669, -521.767977025406, -987.827129178723, -376.518243189547, -200.958558707946, -49994.34856478, 0, ]
...
Loop time of 128.645 on 64 procs for 100000 steps with 11664 atoms

Performance: 67.162 ns/day, 0.357 hours/ns, 777.335 timesteps/s, 9.067 Matom-step/s
70.5% CPU use with 64 MPI tasks x 1 OpenMP threads

MPI task timing breakdown:
Section |  min time  |  avg time  |  max time  |%varavg| %total
---------------------------------------------------------------
Pair    | 62.958     | 64.545     | 66.932     |   8.9 | 50.17
Neigh   | 0.073523   | 0.075023   | 0.078859   |   0.4 |  0.06
Comm    | 18.833     | 20.719     | 22.131     |  15.1 | 16.11
Output  | 0.34031    | 0.38402    | 0.38514    |   0.9 |  0.30
Modify  | 13.368     | 14.345     | 41.873     |  91.8 | 11.15
Other   |            | 28.58      |            |       | 22.21

Nlocal:         182.25 ave         193 max         165 min
Histogram: 1 0 3 6 6 12 11 15 6 4
Nghost:        1275.75 ave        1293 max        1265 min
Histogram: 4 6 15 11 10 8 6 3 0 1
Neighs:        7334.78 ave        7874 max        6465 min
Histogram: 1 0 5 2 9 9 14 12 9 3

Total # of neighbors = 469426
Ave neighs/atom = 40.245713
Neighbor list builds = 199
Dangerous builds = 0
#------------------------------------------------------------------------------#
Total wall time: 0:04:57
