LAMMPS (2 Aug 2023)
OMP_NUM_THREADS environment is not set. Defaulting to 1 thread. (src/comm.cpp:98)
  using 1 OpenMP thread(s) per MPI task
#--------------------------- Simulation variables -----------------------------#
# Initalizes the random number generator.
variable RND equal round(random(0,999,${RANDOM}))
variable RND equal round(random(0,999,1))

# Simulation control parameters.
variable t_eq equal 20000 # Equilibration time.
variable t equal 100000 # Switching time.

#---------------------------- Atomic setup ------------------------------------#
units            metal
# Create atoms.
lattice          bcc ${a}
lattice          bcc 2.9186944444444443
Lattice spacing in x,y,z = 2.9186944 2.9186944 2.9186944
region           sim_box block 0 18 0 18 0 18
create_box       1 sim_box
Created orthogonal box = (0 0 0) to (52.5365 52.5365 52.5365)
  4 by 4 by 4 MPI processor grid
create_atoms     1 box
Created 11664 atoms
  using lattice units in orthogonal box = (0 0 0) to (52.5365 52.5365 52.5365)
  create_atoms CPU = 0.001 seconds

# Define interatomic potential.
pair_style       eam
pair_coeff       * * ../Fe.eam
#----------------------------- Run simulation ---------------------------------#
# Initial temperature to accelerate equilibration.
velocity all create ${T} ${RND} mom yes rot yes dist gaussian
velocity all create 500 ${RND} mom yes rot yes dist gaussian
velocity all create 500 80 mom yes rot yes dist gaussian

# Integrator, Frenkel-Ladd modifier, and thermostat.
fix fe all nve
fix fti all ti/spring ${k} ${t} ${t_eq} function 2
fix fti all ti/spring 4.563314808355604 ${t} ${t_eq} function 2
fix fti all ti/spring 4.563314808355604 100000 ${t_eq} function 2
fix fti all ti/spring 4.563314808355604 100000 20000 function 2
fix ft all langevin ${T} ${T} 0.1 ${RND} zero yes
fix ft all langevin 500 ${T} 0.1 ${RND} zero yes
fix ft all langevin 500 500 0.1 ${RND} zero yes
fix ft all langevin 500 500 0.1 178 zero yes
compute tcom all temp/com
fix_modify ft temp tcom

# Setup thermo output.
variable dE equal pe-f_fti
variable lambda equal f_fti[1]

thermo_style custom step pe ke etotal temp lx ly lz vol press pxx pyy pzz v_dE v_lambda
thermo 100
thermo_modify line yaml
thermo_modify flush yes

# Forward integration.
run ${t_eq}
run 20000

CITE-CITE-CITE-CITE-CITE-CITE-CITE-CITE-CITE-CITE-CITE-CITE-CITE

Your simulation uses code contributions which should be cited:

- ti/spring command: doi:10.1016/j.commatsci.2015.10.050

@article{freitas2016,
  author={Freitas, Rodrigo and Asta, Mark and de Koning, Maurice},
  title={Nonequilibrium Free-Energy Calculation of Solids Using {LAMMPS}},
  journal={Computational Materials Science},
  volume={112},
  pages={333--341},
  year={2016},
  publisher={Elsevier}
}

CITE-CITE-CITE-CITE-CITE-CITE-CITE-CITE-CITE-CITE-CITE-CITE-CITE

Neighbor list info ...
  update: every = 1 steps, delay = 0 steps, check = yes
  max neighbors/atom: 2000, page size: 100000
  master list distance cutoff = 6.409104
  ghost atom cutoff = 6.409104
  binsize = 3.204552, bins = 17 17 17
  1 neighbor lists, perpetual/occasional/extra = 1 0 0
  (1) pair eam, perpetual
      attributes: half, newton on
      pair build: half/bin/atomonly/newton
      stencil: half/bin/3d
      bin: standard
Per MPI rank memory allocation (min/avg/max) = 3.736 | 3.736 | 3.736 Mbytes
---
keywords: ['Step', 'PotEng', 'KinEng', 'TotEng', 'Temp', 'Lx', 'Ly', 'Lz', 'Volume', 'Press', 'Pxx', 'Pyy', 'Pzz', 'v_dE', 'v_lambda', ]
data:
  - [0, -49869.8865340217, 753.7805355675, -49116.1059984542, 500, 52.5365, 52.5365, 52.5365, 145005.144253002, -72804.7797838662, -72744.7132890208, -72843.0153838493, -72826.6106787286, -49869.8865340217, 0, ]
  - [100, -49367.2774038142, 627.45126991289, -48739.8261339013, 416.202886852537, 52.5365, 52.5365, 52.5365, 145005.144253002, -10721.7069249784, -11206.8707396386, -10089.1527291083, -10869.0973061884, -49367.2774038142, 0, ]
  - [200, -49318.0984219918, 708.057664634917, -48610.0407573569, 469.670966033794, 52.5365, 52.5365, 52.5365, 145005.144253002, -4278.89518872223, -4266.19534003504, -4527.27397507692, -4043.21625105474, -49318.0984219918, 0, ]
  - [300, -49287.0305233124, 736.957372109916, -48550.0731512025, 488.840807991335, 52.5365, 52.5365, 52.5365, 145005.144253002, -415.535289260614, -655.191137822126, -326.889942193843, -264.524787765874, -49287.0305233124, 0, ]
  - [400, -49284.8953506801, 753.65050454408, -48531.244846136, 499.91374742562, 52.5365, 52.5365, 52.5365, 145005.144253002, -412.954688105596, -555.879651898931, -250.548404147567, -432.436008270288, -49284.8953506801, 0, ]
  - [500, -49285.0943918011, 744.636722431952, -48540.4576693691, 493.934698029405, 52.5365, 52.5365, 52.5365, 145005.144253002, -112.109718619889, 45.1899596819888, -49.4019475901212, -332.117167951533, -49285.0943918011, 0, ]
  - [600, -49273.5368077703, 754.262217782324, -48519.274589988, 500.319510913386, 52.5365, 52.5365, 52.5365, 145005.144253002, 1085.23224422827, 1367.5624482654, 974.561501075129, 913.572783344288, -49273.5368077703, 0, ]
  - [700, -49279.044360782, 749.937632636696, -48529.1067281453, 497.450913926883, 52.5365, 52.5365, 52.5365, 145005.144253002, 476.67186451803, 521.882595819505, 420.101301919354, 488.031695815233, -49279.044360782, 0, ]
  - [800, -49277.4735458762, 750.606837099535, -48526.8667087767, 497.894812668799, 52.5365, 52.5365, 52.5365, 145005.144253002, 478.01242991101, 338.666433723492, 520.185764768901, 575.185091240638, -49277.4735458762, 0, ]
  - [900, -49275.2825521339, 747.121050735792, -48528.1615013981, 495.58261024431, 52.5365, 52.5365, 52.5365, 145005.144253002, 994.738817757336, 839.497182943509, 828.639401412055, 1316.07986891644, -49275.2825521339, 0, ]
  - [1000, -49282.6505758104, 765.754878182921, -48516.8956976274, 507.942857403717, 52.5365, 52.5365, 52.5365, 145005.144253002, 32.2797437140762, 124.629662958509, -103.025223605522, 75.2347917892407, -49282.6505758104, 0, ]
  - [1100, -49280.6211740761, 764.207310246144, -48516.4138638299, 506.916319927785, 52.5365, 52.5365, 52.5365, 145005.144253002, 268.592486570822, 92.9078098710796, 548.840289420277, 164.029360421114, -49280.6211740761, 0, ]
  - [1200, -49279.5030183628, 750.433841865544, -48529.0691764973, 497.780060943444, 52.5365, 52.5365, 52.5365, 145005.144253002, 248.856407975773, -30.3579594530945, 543.825518046271, 233.101665334143, -49279.5030183628, 0, ]
  - [1300, -49276.0553458835, 756.825738451325, -48519.2296074322, 502.01995324908, 52.5365, 52.5365, 52.5365, 145005.144253002, 731.391567175931, 725.421961569325, 551.055673616556, 917.697066341915, -49276.0553458835, 0, ]
  - [1400, -49289.8481935942, 746.002089537589, -48543.8461040566, 494.840377495252, 52.5365, 52.5365, 52.5365, 145005.144253002, -1145.62270665207, -1158.50938365943, -959.723920624813, -1318.63481567196, -49289.8481935942, 0, ]
  - [1500, -49285.4084819547, 743.398433181884, -48542.0100487728, 493.113312233647, 52.5365, 52.5365, 52.5365, 145005.144253002, -431.166100252778, -248.318219598654, -585.811524883863, -459.368556275814, -49285.4084819547, 0, ]
  - [1600, -49291.6357956257, 752.668595697579, -48538.9671999282, 499.262424659796, 52.5365, 52.5365, 52.5365, 145005.144253002, -747.007912371235, -769.222538563087, -1054.66278943594, -417.138409114682, -49291.6357956257, 0, ]
  - [1700, -49288.401947421, 757.395817933362, -48531.0061294876, 502.39810010691, 52.5365, 52.5365, 52.5365, 145005.144253002, -219.869385189275, -570.226450465916, -148.486516044518, 59.1048109426095, -49288.401947421, 0, ]
  - [1800, -49291.3895686603, 752.551088279458, -48538.8384803809, 499.184479281416, 52.5365, 52.5365, 52.5365, 145005.144253002, -749.554770297748, -716.66916573791, -895.351461348062, -636.643683807273, -49291.3895686603, 0, ]
  - [1900, -49283.1136584952, 746.670529608941, -48536.4431288863, 495.283769198679, 52.5365, 52.5365, 52.5365, 145005.144253002, -118.455747819422, -56.7879978457266, -230.085238081498, -68.4940075310423, -49283.1136584952, 0, ]
  - [2000, -49288.1208495182, 751.080493390051, -48537.0403561282, 498.208999801636, 52.5365, 52.5365, 52.5365, 145005.144253002, -591.68588694109, -416.078377671964, -957.936850142638, -401.04243300867, -49288.1208495182, 0, ]
  - [2100, -49286.8018821457, 756.173530567441, -48530.6283515783, 501.587328729667, 52.5365, 52.5365, 52.5365, 145005.144253002, -560.987258998873, -489.554862967254, -661.360056612361, -532.046857417004, -49286.8018821457, 0, ]
  - [2200, -49290.6828399213, 753.556894290222, -48537.1259456311, 499.851653587002, 52.5365, 52.5365, 52.5365, 145005.144253002, -869.84446657696, -1034.51876070647, -543.654843529185, -1031.35979549523, -49290.6828399213, 0, ]
  - [2300, -49282.2494199022, 752.119396652292, -48530.1300232499, 498.898128276848, 52.5365, 52.5365, 52.5365, 145005.144253002, 185.326421114893, 611.207618476072, -156.833519492033, 101.605164360638, -49282.2494199022, 0, ]
  - [2400, -49290.7434325822, 745.796389890356, -48544.9470426919, 494.703932178925, 52.5365, 52.5365, 52.5365, 145005.144253002, -919.593066159688, -1169.54314517685, -728.918753503779, -860.317299798433, -49290.7434325822, 0, ]
  - [2500, -49285.0918819915, 762.272615107567, -48522.8192668839, 505.632992057611, 52.5365, 52.5365, 52.5365, 145005.144253002, -67.9956020413034, -479.31681639998, -99.144957461889, 374.474967737959, -49285.0918819915, 0, ]
  - [2600, -49285.6748699723, 756.445000761544, -48529.2298692108, 501.767401165405, 52.5365, 52.5365, 52.5365, 145005.144253002, -277.870817269173, -568.455072977261, -293.435785986073, 28.2784071558143, -49285.6748699723, 0, ]
  - [2700, -49285.9550433357, 747.644139340388, -48538.3109039953, 495.929586970237, 52.5365, 52.5365, 52.5365, 145005.144253002, -496.74642333859, -468.22089796749, -542.275111965383, -479.743260082896, -49285.9550433357, 0, ]
  - [2800, -49284.0832524425, 751.104442655709, -48532.9788097868, 498.224885901454, 52.5365, 52.5365, 52.5365, 145005.144253002, -237.029016032019, -11.4894503444696, -515.276607272001, -184.320990479589, -49284.0832524425, 0, ]
  - [2900, -49284.1658630626, 748.016028609033, -48536.1498344535, 496.17626969226, 52.5365, 52.5365, 52.5365, 145005.144253002, -391.536404407728, -350.487910562146, -434.104330550936, -390.016972110103, -49284.1658630626, 0, ]
  - [3000, -49277.873819999, 742.968578427204, -48534.9052415718, 492.82817966893, 52.5365, 52.5365, 52.5365, 145005.144253002, 456.678299551174, 277.018517060342, 671.079274705818, 421.937106887364, -49277.873819999, 0, ]
  - [3100, -49285.8535309562, 751.328721198278, -48534.524809758, 498.373655027205, 52.5365, 52.5365, 52.5365, 145005.144253002, -687.94838190814, -1113.80945567856, -622.09988742018, -327.935802625683, -49285.8535309562, 0, ]
  - [3200, -49282.6346043096, 752.408675946838, -48530.2259283627, 499.090013899318, 52.5365, 52.5365, 52.5365, 145005.144253002, -6.62609522411092, -244.941084277175, 223.788988522578, 1.27381008226695, -49282.6346043096, 0, ]
  - [3300, -49287.942629356, 755.214996396414, -48532.7276329596, 500.95151092475, 52.5365, 52.5365, 52.5365, 145005.144253002, -690.434980420121, -771.955208806123, -667.778207986618, -631.571524467621, -49287.942629356, 0, ]
  - [3400, -49279.5234432412, 761.000768529481, -48518.5226747117, 504.789346912855, 52.5365, 52.5365, 52.5365, 145005.144253002, 691.347800969657, 684.150635838705, 721.009338054631, 668.883429015637, -49279.5234432412, 0, ]
  - [3500, -49277.5242312451, 761.281661486447, -48516.2425697586, 504.975669684346, 52.5365, 52.5365, 52.5365, 145005.144253002, 965.48660243657, 620.727100552895, 984.916690250159, 1290.81601650665, -49277.5242312451, 0, ]
  - [3600, -49280.1984688324, 756.672513838442, -48523.525954994, 501.918315832316, 52.5365, 52.5365, 52.5365, 145005.144253002, 421.297311005032, 422.048862027979, 556.001007639585, 285.842063347531, -49280.1984688324, 0, ]
  - [3700, -49279.0309613576, 755.338882821882, -48523.6920785358, 501.033687645707, 52.5365, 52.5365, 52.5365, 145005.144253002, 559.369319735834, 406.425202660545, 430.901879018104, 840.780877528857, -49279.0309613576, 0, ]
  - [3800, -49277.2435607446, 746.962118181181, -48530.2814425634, 495.47718661826, 52.5365, 52.5365, 52.5365, 145005.144253002, 718.503820124702, 818.032826884386, 648.305607560915, 689.173025928801, -49277.2435607446, 0, ]
  - [3900, -49285.4437755438, 754.445926464264, -48530.9978490796, 500.441369115656, 52.5365, 52.5365, 52.5365, 145005.144253002, -416.70173572672, -366.94536684373, -553.689778142338, -329.47006219409, -49285.4437755438, 0, ]
  - [4000, -49283.7532383522, 759.32278946956, -48524.4304488826, 503.676304733637, 52.5365, 52.5365, 52.5365, 145005.144253002, -83.8405209661462, -128.6498828238, -261.620569322228, 138.748889247591, -49283.7532383522, 0, ]
  - [4100, -49287.4185694611, 753.821415779284, -48533.5971536819, 500.027116786554, 52.5365, 52.5365, 52.5365, 145005.144253002, -665.507332512812, -1074.04775237467, -327.681063518044, -594.793181645718, -49287.4185694611, 0, ]
  - [4200, -49283.7728483024, 754.745821456866, -48529.0270268455, 500.640296375283, 52.5365, 52.5365, 52.5365, 145005.144253002, -82.4021518297889, -38.1815995619457, -8.65285480922979, -200.372001118191, -49283.7728483024, 0, ]
  - [4300, -49286.5963103824, 754.44664171959, -48532.1496686628, 500.441843560997, 52.5365, 52.5365, 52.5365, 145005.144253002, -232.838522194904, -556.197817249232, -148.241194475683, 5.923445140208, -49286.5963103824, 0, ]
  - [4400, -49284.0607656352, 752.257968255829, -48531.8027973794, 498.990046014836, 52.5365, 52.5365, 52.5365, 145005.144253002, -125.830702754099, -136.732300845942, -44.4676225348392, -196.292184881516, -49284.0607656352, 0, ]
  - [4500, -49285.6240662191, 754.470108533209, -48531.1539576859, 500.457409639259, 52.5365, 52.5365, 52.5365, 145005.144253002, -361.996233144207, 116.788403705861, -304.977541012212, -897.79956212627, -49285.6240662191, 0, ]
  - [4600, -49281.4595212033, 751.137535817517, -48530.3219853857, 498.246837358308, 52.5365, 52.5365, 52.5365, 145005.144253002, 183.103448332281, -116.676352464985, 280.150802786119, 385.83589467571, -49281.4595212033, 0, ]
  - [4700, -49284.4684267182, 752.538809349478, -48531.9296173687, 499.176334384194, 52.5365, 52.5365, 52.5365, 145005.144253002, 84.9284118996963, 87.9544708918916, 228.734693570887, -61.9039287636913, -49284.4684267182, 0, ]
  - [4800, -49273.9328580634, 760.853112682963, -48513.0797453804, 504.691403387153, 52.5365, 52.5365, 52.5365, 145005.144253002, 1033.28876541702, 942.516752548257, 1181.4126764326, 975.936867270198, -49273.9328580634, 0, ]
  - [4900, -49281.630538407, 757.70047536557, -48523.9300630415, 502.600186402478, 52.5365, 52.5365, 52.5365, 145005.144253002, 10.2130008747005, 7.83597257544788, 30.8604757976373, -8.0574457489823, -49281.630538407, 0, ]
  - [5000, -49286.7571050118, 756.808044502558, -48529.9490605092, 502.008216445108, 52.5365, 52.5365, 52.5365, 145005.144253002, -198.844381123527, -119.595394665516, -335.935889528206, -141.001859176859, -49286.7571050118, 0, ]
  - [5100, -49280.6623046, 750.481415499067, -48530.1808891009, 497.811617630887, 52.5365, 52.5365, 52.5365, 145005.144253002, 320.471414832388, 294.916358787239, 423.999085081134, 242.498800628794, -49280.6623046, 0, ]
  - [5200, -49283.0858021773, 761.799436959044, -48521.2863652182, 505.319122087377, 52.5365, 52.5365, 52.5365, 145005.144253002, 54.639218651177, 43.6174608974242, -67.5852080658882, 187.885403121995, -49283.0858021773, 0, ]
  - [5300, -49288.6405410579, 752.80031240262, -48535.8402286553, 499.349795385641, 52.5365, 52.5365, 52.5365, 145005.144253002, -829.16752811208, -1048.76232509802, -522.848805699082, -915.891453539139, -49288.6405410579, 0, ]
  - [5400, -49289.023453369, 747.997690378547, -48541.0257629904, 496.164105521377, 52.5365, 52.5365, 52.5365, 145005.144253002, -312.874425684615, -324.781843106327, -228.190709524926, -385.650724422591, -49289.023453369, 0, ]
  - [5500, -49280.2467215663, 752.031100303243, -48528.2156212631, 498.839559273748, 52.5365, 52.5365, 52.5365, 145005.144253002, 638.039345852627, 641.969189796741, 390.117245228257, 882.031602532886, -49280.2467215663, 0, ]
  - [5600, -49282.4332722048, 755.941812386277, -48526.4914598185, 501.433624720191, 52.5365, 52.5365, 52.5365, 145005.144253002, 206.024158770778, 204.289205606724, 331.28797469161, 82.4952960140032, -49282.4332722048, 0, ]
  - [5700, -49294.9678203287, 753.439974382086, -48541.5278459466, 499.774097917534, 52.5365, 52.5365, 52.5365, 145005.144253002, -1520.9664514064, -1164.02319253862, -1565.28788134337, -1833.58828033721, -49294.9678203287, 0, ]
  - [5800, -49289.2344583177, 747.223992788765, -48542.0104655289, 495.650894080332, 52.5365, 52.5365, 52.5365, 145005.144253002, -811.191124989267, -968.930485675498, -461.241477019637, -1003.40141227266, -49289.2344583177, 0, ]
  - [5900, -49286.5232455696, 752.164720588715, -48534.3585249809, 498.928192688361, 52.5365, 52.5365, 52.5365, 145005.144253002, -490.315858946231, -455.158143168589, -583.861418492854, -431.928015177251, -49286.5232455696, 0, ]
  - [6000, -49284.9355600946, 757.448950317769, -48527.4866097768, 502.433344041915, 52.5365, 52.5365, 52.5365, 145005.144253002, -233.683357458569, -349.653743551751, -222.189299755457, -129.207029068498, -49284.9355600946, 0, ]
  - [6100, -49275.3042281852, 759.610847052531, -48515.6933811327, 503.867379966664, 52.5365, 52.5365, 52.5365, 145005.144253002, 1205.31123975317, 1133.17003668113, 1297.06730803905, 1185.69637453932, -49275.3042281852, 0, ]
  - [6200, -49287.1584832691, 747.749471298824, -48539.4090119702, 495.999456085626, 52.5365, 52.5365, 52.5365, 145005.144253002, -768.479136730005, -558.744043487327, -969.497260318756, -777.196106383932, -49287.1584832691, 0, ]
  - [6300, -49292.6318338215, 757.710879995984, -48534.9209538255, 502.607088033605, 52.5365, 52.5365, 52.5365, 145005.144253002, -1081.37577688585, -1100.53257803041, -1323.67933635305, -819.915416274086, -49292.6318338215, 0, ]
  - [6400, -49286.8203965955, 746.844954626469, -48539.975441969, 495.399469332404, 52.5365, 52.5365, 52.5365, 145005.144253002, -630.693434277311, -462.819001656798, -519.629185740665, -909.632115434467, -49286.8203965955, 0, ]
  - [6500, -49276.6899588023, 761.619051884319, -48515.070906918, 505.199468510365, 52.5365, 52.5365, 52.5365, 145005.144253002, 550.75022234824, 615.003542522639, 707.821237710835, 329.425886811244, -49276.6899588023, 0, ]
  - [6600, -49275.9624510968, 761.70235117431, -48514.2600999225, 505.254722849036, 52.5365, 52.5365, 52.5365, 145005.144253002, 801.782173772514, 766.705842889681, 931.899967368631, 706.740711059232, -49275.9624510968, 0, ]
  - [6700, -49279.4860471218, 762.462869799165, -48517.0231773226, 505.759192378939, 52.5365, 52.5365, 52.5365, 145005.144253002, 188.946790254376, 256.537406728907, 213.690606312786, 96.6123577214355, -49279.4860471218, 0, ]
  - [6800, -49285.0266275706, 759.020891940741, -48526.0057356299, 503.476049145588, 52.5365, 52.5365, 52.5365, 145005.144253002, -479.096095537022, -491.99103322274, -173.27061268958, -772.026640698748, -49285.0266275706, 0, ]
  - [6900, -49278.0187209015, 758.385758653469, -48519.6329622481, 503.05475059959, 52.5365, 52.5365, 52.5365, 145005.144253002, 473.952590401444, 441.203689032158, 269.608942617488, 711.045139554684, -49278.0187209015, 0, ]
  - [7000, -49281.8469330207, 757.665110337206, -48524.1818226835, 502.576727964182, 52.5365, 52.5365, 52.5365, 145005.144253002, 377.747771840356, 416.30649798147, 266.58869127239, 450.348126267208, -49281.8469330207, 0, ]
  - [7100, -49286.2404670928, 763.478563011278, -48522.7619040815, 506.432925093029, 52.5365, 52.5365, 52.5365, 145005.144253002, -8.174532792049, 375.545733226836, -527.243929199465, 127.174597596479, -49286.2404670928, 0, ]
  - [7200, -49281.5132031551, 752.29464287249, -48529.2185602826, 499.014373133228, 52.5365, 52.5365, 52.5365, 145005.144253002, -116.902267751901, -366.566266371314, -121.921540436181, 137.781003551793, -49281.5132031551, 0, ]
  - [7300, -49276.4609038435, 746.580719401178, -48529.8801844424, 495.224196018207, 52.5365, 52.5365, 52.5365, 145005.144253002, 591.480852153782, 607.256242243641, 392.280577828894, 774.905736388814, -49276.4609038435, 0, ]
  - [7400, -49278.9371983153, 758.505619614153, -48520.4315787011, 503.13425713699, 52.5365, 52.5365, 52.5365, 145005.144253002, 832.812113071108, 666.442158173089, 1055.87229252629, 776.121888513946, -49278.9371983153, 0, ]
  - [7500, -49275.4720250936, 748.441492523438, -48527.0305325702, 496.458489711437, 52.5365, 52.5365, 52.5365, 145005.144253002, 1111.39674478782, 1365.64685733405, 705.262571595202, 1263.28080543422, -49275.4720250936, 0, ]
  - [7600, -49289.799362349, 758.331540675865, -48531.4678216731, 503.018786565601, 52.5365, 52.5365, 52.5365, 145005.144253002, -469.678135442204, -97.0998169145579, -684.612664362056, -627.321925049996, -49289.799362349, 0, ]
  - [7700, -49285.8483519898, 758.99141331507, -48526.8569386748, 503.456495293851, 52.5365, 52.5365, 52.5365, 145005.144253002, -606.378022906774, -665.996994440688, -720.970716656615, -432.16635762302, -49285.8483519898, 0, ]
  - [7800, -49285.9890016113, 765.999464813768, -48519.9895367976, 508.10509735242, 52.5365, 52.5365, 52.5365, 145005.144253002, -225.491416553629, -263.004597439466, -578.984121495296, 165.514469273876, -49285.9890016113, 0, ]
  - [7900, -49290.3088881759, 751.883222737185, -48538.4256654387, 498.741468676366, 52.5365, 52.5365, 52.5365, 145005.144253002, -706.819829818046, -385.093891008061, -1101.04907462784, -634.31652381824, -49290.3088881759, 0, ]
  - [8000, -49284.3572912438, 754.939706980902, -48529.4175842629, 500.768905111439, 52.5365, 52.5365, 52.5365, 145005.144253002, -335.320868758967, 12.3225966476792, -714.771701771052, -303.513501153529, -49284.3572912438, 0, ]
  - [8100, -49285.0458787186, 755.751668037063, -48529.2942106816, 501.30749759151, 52.5365, 52.5365, 52.5365, 145005.144253002, 4.70036448351485, -226.074028095212, 307.976553799519, -67.8014322537627, -49285.0458787186, 0, ]
  - [8200, -49282.3428259397, 752.503946184674, -48529.8388797551, 499.153208843563, 52.5365, 52.5365, 52.5365, 145005.144253002, -130.608617276192, -64.5537517592261, -75.5256951039643, -251.746404965387, -49282.3428259397, 0, ]
  - [8300, -49285.8317418226, 756.446961527233, -48529.3847802954, 501.768701786473, 52.5365, 52.5365, 52.5365, 145005.144253002, -304.470936436689, -260.281164927615, -251.620067490752, -401.511576891697, -49285.8317418226, 0, ]
  - [8400, -49282.6673063823, 757.615509408058, -48525.0517969742, 502.543826524832, 52.5365, 52.5365, 52.5365, 145005.144253002, 61.1384900341027, 103.497609939897, 61.8297217755421, 18.0881383868692, -49282.6673063823, 0, ]
  - [8500, -49276.4500081543, 763.342811347583, -48513.1071968067, 506.342877886124, 52.5365, 52.5365, 52.5365, 145005.144253002, 352.311050968072, 409.131318589452, 209.479362517793, 438.322471796969, -49276.4500081543, 0, ]
  - [8600, -49279.2956177854, 749.506518826129, -48529.7890989593, 497.164946201381, 52.5365, 52.5365, 52.5365, 145005.144253002, 446.28985193321, 748.401299450852, 333.910410772168, 256.557845576611, -49279.2956177854, 0, ]
  - [8700, -49274.7360056604, 758.087265138328, -48516.6487405221, 502.85675297226, 52.5365, 52.5365, 52.5365, 145005.144253002, 636.334281134986, 270.207812321297, 847.488831442452, 791.306199641205, -49274.7360056604, 0, ]
  - [8800, -49275.9682586476, 762.979973838871, -48512.9882848088, 506.102199405059, 52.5365, 52.5365, 52.5365, 145005.144253002, 823.88309668922, 689.065639253159, 1070.43071495106, 712.152935863436, -49275.9682586476, 0, ]
  - [8900, -49278.5378162776, 763.095117485434, -48515.4426987922, 506.178576839293, 52.5365, 52.5365, 52.5365, 145005.144253002, 307.337815434985, 0.131980769549122, 571.967077124128, 349.91438841128, -49278.5378162776, 0, ]
  - [9000, -49282.0985171684, 762.815508735953, -48519.2830084325, 505.993105912221, 52.5365, 52.5365, 52.5365, 145005.144253002, 104.010826834372, 216.792222361695, 304.598517460412, -209.358259318988, -49282.0985171684, 0, ]
  - [9100, -49291.0945927216, 756.549961605876, -48534.5446311157, 501.837024112258, 52.5365, 52.5365, 52.5365, 145005.144253002, -989.906386608847, -853.950056706453, -929.187226515058, -1186.58187660503, -49291.0945927216, 0, ]
  - [9200, -49280.3902079457, 751.966583455176, -48528.4236244905, 498.796763761644, 52.5365, 52.5365, 52.5365, 145005.144253002, 175.041450235693, 492.220025832171, -160.594109782373, 193.498434657287, -49280.3902079457, 0, ]
  - [9300, -49281.1848536064, 763.559751209112, -48517.6251023973, 506.486779095622, 52.5365, 52.5365, 52.5365, 145005.144253002, 185.973617908523, 350.593560366632, -7.9636808226842, 215.290974181623, -49281.1848536064, 0, ]
  - [9400, -49276.0850562752, 746.673950760551, -48529.4111055147, 495.286038527382, 52.5365, 52.5365, 52.5365, 145005.144253002, 466.087014735984, 422.821455520965, 538.921977829592, 436.517610857398, -49276.0850562752, 0, ]
  - [9500, -49287.4688912318, 756.535318434819, -48530.933572797, 501.827310959446, 52.5365, 52.5365, 52.5365, 145005.144253002, -660.041944020207, -814.620082270859, -996.054363643556, -169.451386146209, -49287.4688912318, 0, ]
  - [9600, -49285.9762656094, 760.638440259993, -48525.3378253494, 504.549006221904, 52.5365, 52.5365, 52.5365, 145005.144253002, -416.279006899703, -575.940914526731, -258.212921289771, -414.683184882608, -49285.9762656094, 0, ]
  - [9700, -49281.6515560886, 745.251231926513, -48536.4003241621, 494.342316338425, 52.5365, 52.5365, 52.5365, 145005.144253002, -22.533217109494, -220.599140165346, -116.883731778278, 269.883220615142, -49281.6515560886, 0, ]
  - [9800, -49284.3265170372, 753.536883556401, -48530.7896334808, 499.838380006115, 52.5365, 52.5365, 52.5365, 145005.144253002, 109.109582708565, -205.030855433838, 662.706746146865, -130.347142587331, -49284.3265170372, 0, ]
  - [9900, -49282.2830694736, 768.863582830376, -48513.4194866432, 510.004932836002, 52.5365, 52.5365, 52.5365, 145005.144253002, -74.2856096621095, -369.444492651739, 212.626581667302, -66.0389180018896, -49282.2830694736, 0, ]
  - [10000, -49276.6763268489, 756.238720414197, -48520.4376064347, 501.630570657311, 52.5365, 52.5365, 52.5365, 145005.144253002, 312.174573706163, 83.9729193808199, 198.612178329416, 653.938623408253, -49276.6763268489, 0, ]
  - [10100, -49278.3584060609, 754.734631450549, -48523.6237746104, 500.632873786221, 52.5365, 52.5365, 52.5365, 145005.144253002, 402.383471622554, 348.936861117853, 413.818832179108, 444.394721570701, -49278.3584060609, 0, ]
  - [10200, -49280.453834299, 751.716464248792, -48528.7373700502, 498.630853928091, 52.5365, 52.5365, 52.5365, 145005.144253002, 173.513834663103, 222.727536554002, -100.945625035697, 398.759592471003, -49280.453834299, 0, ]
  - [10300, -49284.3163010285, 759.783271667236, -48524.5330293613, 503.981753187098, 52.5365, 52.5365, 52.5365, 145005.144253002, -38.2641391361191, -242.998709841985, 267.456797187311, -139.250504753684, -49284.3163010285, 0, ]
  - [10400, -49281.4545282048, 756.732741418829, -48524.721786786, 501.958266174323, 52.5365, 52.5365, 52.5365, 145005.144253002, 51.3771000973747, -106.291077124165, 105.805622396742, 154.616755019546, -49281.4545282048, 0, ]
  - [10500, -49277.2482364515, 760.122762390034, -48517.1254740614, 504.206945207042, 52.5365, 52.5365, 52.5365, 145005.144253002, 782.267392147968, 833.483715987781, 697.991991722961, 815.326468733164, -49277.2482364515, 0, ]
  - [10600, -49281.0792200669, 747.918980680616, -48533.1602393862, 496.111895564887, 52.5365, 52.5365, 52.5365, 145005.144253002, 122.562501563514, 207.355781116749, -61.016149488492, 221.347873062285, -49281.0792200669, 0, ]
  - [10700, -49292.6401338416, 754.026372602186, -48538.6137612394, 500.163069370385, 52.5365, 52.5365, 52.5365, 145005.144253002, -1184.60528793747, -1252.21718874687, -1286.82216593601, -1014.77650912951, -49292.6401338416, 0, ]
  - [10800, -49283.2011046718, 751.060040305227, -48532.1410643666, 498.195432799133, 52.5365, 52.5365, 52.5365, 145005.144253002, 159.163631727191, 219.517082887463, 73.807377321963, 184.166434972146, -49283.2011046718, 0, ]
  - [10900, -49284.4053140622, 741.79559933726, -48542.6097147249, 492.050115607445, 52.5365, 52.5365, 52.5365, 145005.144253002, -381.605315154803, -468.686431140081, -262.656089556279, -413.473424768047, -49284.4053140622, 0, ]
  - [11000, -49283.6062755738, 745.548963511037, -48538.0573120628, 494.539808559619, 52.5365, 52.5365, 52.5365, 145005.144253002, -175.302827959393, -339.153437840803, -186.974023847293, 0.218977809914351, -49283.6062755738, 0, ]
  - [11100, -49288.1971244689, 745.974565760466, -48542.2225587085, 494.822120339605, 52.5365, 52.5365, 52.5365, 145005.144253002, -981.838825665112, -1413.44701816716, -549.961118665207, -982.108340162969, -49288.1971244689, 0, ]
  - [11200, -49282.1489960585, 746.689742615754, -48535.4592534427, 495.296513628859, 52.5365, 52.5365, 52.5365, 145005.144253002, 123.820157427835, 133.728235764319, 138.562225476526, 99.1700110426616, -49282.1489960585, 0, ]
  - [11300, -49284.1065540834, 749.73612541174, -48534.3704286716, 497.317249540866, 52.5365, 52.5365, 52.5365, 145005.144253002, -451.298786998871, -548.856341210156, -373.037200161175, -432.002819625283, -49284.1065540834, 0, ]
  - [11400, -49276.6952205806, 757.319022141199, -48519.3761984394, 502.347159688221, 52.5365, 52.5365, 52.5365, 145005.144253002, 910.529324656448, 1047.76572025954, 1039.71295492062, 644.109298789184, -49276.6952205806, 0, ]
  - [11500, -49287.1547394043, 759.261756653964, -48527.8929827503, 503.63582026056, 52.5365, 52.5365, 52.5365, 145005.144253002, -377.024438841325, -201.871028962027, -564.988034057489, -364.21425350446, -49287.1547394043, 0, ]
  - [11600, -49276.8646563673, 747.772152483159, -48529.0925038842, 496.01450103788, 52.5365, 52.5365, 52.5365, 145005.144253002, 714.083261496201, 672.144213819267, 956.586029072021, 513.519541597317, -49276.8646563673, 0, ]
  - [11700, -49282.2636874851, 759.936660902414, -48522.3270265827, 504.083499801622, 52.5365, 52.5365, 52.5365, 145005.144253002, -261.62854354701, -254.306825009972, -92.4341374046549, -438.144668226405, -49282.2636874851, 0, ]
  - [11800, -49282.7316836278, 755.724836172109, -48527.0068474557, 501.28969939715, 52.5365, 52.5365, 52.5365, 145005.144253002, 217.366391155008, 333.425716044708, 473.443302432491, -154.769845012174, -49282.7316836278, 0, ]
  - [11900, -49284.4958184806, 752.235230919069, -48532.2605875615, 498.974963815384, 52.5365, 52.5365, 52.5365, 145005.144253002, 177.603163648588, -113.898357148669, 76.5343922706944, 570.173455823739, -49284.4958184806, 0, ]
  - [12000, -49283.0062718373, 760.300690823161, -48522.7055810141, 504.324969237069, 52.5365, 52.5365, 52.5365, 145005.144253002, 128.582377087872, -268.004334849733, 357.488968672822, 296.262497440531, -49283.0062718373, 0, ]
  - [12100, -49284.3378385598, 752.782465438006, -48531.5553731218, 499.337957082732, 52.5365, 52.5365, 52.5365, 145005.144253002, -354.646972071056, -511.543874802425, -252.473346592635, -299.923694818108, -49284.3378385598, 0, ]
  - [12200, -49279.6617790531, 748.187741836134, -48531.474037217, 496.290171032902, 52.5365, 52.5365, 52.5365, 145005.144253002, 267.638810553728, 172.959253666995, 288.700017467821, 341.257160526371, -49279.6617790531, 0, ]
  - [12300, -49281.8471693559, 748.016669258352, -48533.8305000976, 496.176694649717, 52.5365, 52.5365, 52.5365, 145005.144253002, 207.845870528433, 170.571726464554, 151.361304350865, 301.604580769881, -49281.8471693559, 0, ]
  - [12400, -49280.9878094554, 749.983446221313, -48531.0043632341, 497.481303133326, 52.5365, 52.5365, 52.5365, 145005.144253002, 238.653240215365, 214.531480348378, 107.804622483447, 393.623617814271, -49280.9878094554, 0, ]
  - [12500, -49292.5186158782, 742.756815216286, -48549.7618006619, 492.687712251077, 52.5365, 52.5365, 52.5365, 145005.144253002, -1003.47050645503, -944.428179067815, -828.707623681494, -1237.27571661578, -49292.5186158782, 0, ]
  - [12600, -49292.7076584329, 753.010401085744, -48539.6972573472, 499.489152050619, 52.5365, 52.5365, 52.5365, 145005.144253002, -1161.41398526252, -1341.09720081402, -1114.68666353783, -1028.45809143571, -49292.7076584329, 0, ]
  - [12700, -49281.3461101525, 749.947658278459, -48531.398451874, 497.457564166104, 52.5365, 52.5365, 52.5365, 145005.144253002, 253.479511923025, 404.427807837126, 617.089070003711, -261.078342071761, -49281.3461101525, 0, ]
  - [12800, -49271.7733841716, 741.667997024922, -48530.1053871467, 491.965474053095, 52.5365, 52.5365, 52.5365, 145005.144253002, 1268.15731440482, 1137.16548593097, 1350.27632753264, 1317.03012975085, -49271.7733841716, 0, ]
  - [12900, -49280.6683431965, 749.808287020872, -48530.8600561756, 497.365115999156, 52.5365, 52.5365, 52.5365, 145005.144253002, 45.8035655758889, 38.9187611990142, 19.4536506974802, 79.0382848311743, -49280.6683431965, 0, ]
  - [13000, -49294.807523706, 751.369690797724, -48543.4378329083, 498.400831106656, 52.5365, 52.5365, 52.5365, 145005.144253002, -1332.95991925535, -1139.80714224457, -1477.87154115682, -1381.20107436465, -49294.807523706, 0, ]
  - [13100, -49279.002479109, 744.4308453362, -48534.5716337728, 493.798135007386, 52.5365, 52.5365, 52.5365, 145005.144253002, 540.650946704065, 167.067540644111, 840.513803951875, 614.371495516211, -49279.002479109, 0, ]
  - [13200, -49288.115194824, 746.490966211191, -48541.6242286128, 495.16466065894, 52.5365, 52.5365, 52.5365, 145005.144253002, -304.029454124124, -433.998569434219, -258.012704348186, -220.077088589966, -49288.115194824, 0, ]
  - [13300, -49284.1260651456, 752.257380032279, -48531.8686851133, 498.9896558326, 52.5365, 52.5365, 52.5365, 145005.144253002, 32.0944080726015, -118.628121238178, 285.523090623027, -70.6117451670452, -49284.1260651456, 0, ]
  - [13400, -49286.6881066332, 758.139044621587, -48528.5490620116, 502.891099496756, 52.5365, 52.5365, 52.5365, 145005.144253002, -494.597951127609, -420.096201064638, -404.975034538938, -658.72261777925, -49286.6881066332, 0, ]
  - [13500, -49276.8925004666, 752.472815675309, -48524.4196847913, 499.132559259303, 52.5365, 52.5365, 52.5365, 145005.144253002, 584.79513034941, 168.377387425315, 662.423442660099, 923.584560962815, -49276.8925004666, 0, ]
  - [13600, -49290.2024978592, 759.256622441375, -48530.9458754178, 503.632414619032, 52.5365, 52.5365, 52.5365, 145005.144253002, -762.851398133817, -552.454448389396, -822.51556202804, -913.584183984015, -49290.2024978592, 0, ]
  - [13700, -49278.9460494258, 749.296672230935, -48529.6493771948, 497.025750118906, 52.5365, 52.5365, 52.5365, 145005.144253002, 481.259425962599, 862.266829525129, 281.62874940018, 299.882698962486, -49278.9460494258, 0, ]
  - [13800, -49290.6300215004, 744.961235981299, -48545.6687855191, 494.149955345052, 52.5365, 52.5365, 52.5365, 145005.144253002, -960.663268371454, -1211.26140415284, -858.556540932428, -812.171860029094, -49290.6300215004, 0, ]
  - [13900, -49293.2298366022, 750.825214303779, -48542.4046222984, 498.039667300843, 52.5365, 52.5365, 52.5365, 145005.144253002, -1453.63712563163, -1444.25392336698, -1114.59164229559, -1802.06581123232, -49293.2298366022, 0, ]
  - [14000, -49285.1156884109, 753.433381001762, -48531.6823074092, 499.769724376422, 52.5365, 52.5365, 52.5365, 145005.144253002, -327.411487700823, -185.110695539062, -196.081331544148, -601.042436019263, -49285.1156884109, 0, ]
  - [14100, -49280.2233964453, 743.795048777593, -48536.4283476677, 493.376396498227, 52.5365, 52.5365, 52.5365, 145005.144253002, 360.683091169129, -40.6871767648019, 688.940422180067, 433.796028092122, -49280.2233964453, 0, ]
  - [14200, -49289.2264179255, 747.065511693795, -48542.1609062317, 495.545769917865, 52.5365, 52.5365, 52.5365, 145005.144253002, -869.298906223649, -753.158843308747, -1196.42156674176, -658.316308620444, -49289.2264179255, 0, ]
  - [14300, -49293.1847340232, 755.39375404757, -48537.7909799756, 501.070084994206, 52.5365, 52.5365, 52.5365, 145005.144253002, -1227.84665148135, -1173.04127569788, -1309.15949093339, -1201.33918781278, -49293.1847340232, 0, ]
  - [14400, -49283.6492044081, 763.348045056632, -48520.3011593515, 506.346349525946, 52.5365, 52.5365, 52.5365, 145005.144253002, -55.6089857363725, 17.2103580507024, -59.7993302924134, -124.23798496741, -49283.6492044081, 0, ]
  - [14500, -49285.2426261344, 767.158528865066, -48518.0840972693, 508.873931248101, 52.5365, 52.5365, 52.5365, 145005.144253002, -195.011877254145, -442.155511601218, 269.612736934315, -412.492857095531, -49285.2426261344, 0, ]
  - [14600, -49286.1631691564, 755.892254628888, -48530.2709145275, 501.400751917664, 52.5365, 52.5365, 52.5365, 145005.144253002, -532.715870953698, -698.290844197554, -343.432268996638, -556.424499666902, -49286.1631691564, 0, ]
  - [14700, -49286.2853814223, 761.660900672391, -48524.62448075, 505.227227775893, 52.5365, 52.5365, 52.5365, 145005.144253002, -116.608454112255, -411.474136734488, -78.4769313861081, 140.125705783831, -49286.2853814223, 0, ]
  - [14800, -49286.704848702, 757.202355013911, -48529.5024936881, 502.269771694114, 52.5365, 52.5365, 52.5365, 145005.144253002, -566.474915863299, -852.91624279519, -473.817635276526, -372.690869518179, -49286.704848702, 0, ]
  - [14900, -49286.6766610887, 753.159202887462, -48533.5174582012, 499.587855714814, 52.5365, 52.5365, 52.5365, 145005.144253002, -335.820988963216, -527.35135675632, -104.399069066999, -375.71254106633, -49286.6766610887, 0, ]
  - [15000, -49287.1836716147, 747.112451246263, -48540.0712203684, 495.576906004732, 52.5365, 52.5365, 52.5365, 145005.144253002, -183.087778536682, -16.0359919602423, -223.895570484055, -309.331773165752, -49287.1836716147, 0, ]
  - [15100, -49296.5018061598, 748.330195361495, -48548.1716107983, 496.384663739093, 52.5365, 52.5365, 52.5365, 145005.144253002, -1336.37685594129, -1201.5154702357, -1281.84814200298, -1525.7669555852, -49296.5018061598, 0, ]
  - [15200, -49282.1129371277, 741.504061470414, -48540.6088756572, 491.85673182192, 52.5365, 52.5365, 52.5365, 145005.144253002, 227.696248284078, 439.073390691038, 243.033574268451, 0.981779892749988, -49282.1129371277, 0, ]
  - [15300, -49290.4407235394, 749.824652967773, -48540.6160705716, 497.375971908887, 52.5365, 52.5365, 52.5365, 145005.144253002, -925.04292517748, -394.428175490473, -1019.13081987117, -1361.56978017081, -49290.4407235394, 0, ]
  - [15400, -49285.7998252372, 754.077463703352, -48531.7223615339, 500.196959275174, 52.5365, 52.5365, 52.5365, 145005.144253002, 28.2181275493622, 65.3233327712371, 206.277945830601, -186.946895953756, -49285.7998252372, 0, ]
  - [15500, -49279.6245491527, 757.333976873512, -48522.2905722792, 502.357079506794, 52.5365, 52.5365, 52.5365, 145005.144253002, 750.125168381171, 652.182974673362, 729.363294025179, 868.82923644497, -49279.6245491527, 0, ]
  - [15600, -49280.5814048393, 748.25124947554, -48532.3301553637, 496.332297113644, 52.5365, 52.5365, 52.5365, 145005.144253002, 462.294602123785, 383.197372926242, 622.643982472188, 381.042450972926, -49280.5814048393, 0, ]
  - [15700, -49280.3028663525, 749.976932931296, -48530.3259334212, 497.47698271796, 52.5365, 52.5365, 52.5365, 145005.144253002, 247.930422988917, 400.298724443919, -102.212637881943, 445.705182404775, -49280.3028663525, 0, ]
  - [15800, -49285.2182052122, 756.042758304054, -48529.1754469081, 501.500584473736, 52.5365, 52.5365, 52.5365, 145005.144253002, -513.187237509803, -329.401692743256, -588.482639347214, -621.67738043894, -49285.2182052122, 0, ]
  - [15900, -49286.44089665, 753.855328840833, -48532.5855678091, 500.049612101801, 52.5365, 52.5365, 52.5365, 145005.144253002, -480.712887384221, -193.675641496568, -437.987383515708, -810.475637140384, -49286.44089665, 0, ]
  - [16000, -49290.432525044, 750.297282842375, -48540.1352422016, 497.689478196394, 52.5365, 52.5365, 52.5365, 145005.144253002, -872.922113284905, -1000.55011871161, -716.492598488688, -901.723622654413, -49290.432525044, 0, ]
  - [16100, -49281.5352787479, 758.976614897015, -48522.5586638509, 503.446679162127, 52.5365, 52.5365, 52.5365, 145005.144253002, -1.42459253928439, -213.632688140931, 118.668481159114, 90.6904293639656, -49281.5352787479, 0, ]
  - [16200, -49279.7715746532, 759.165316788543, -48520.6062578647, 503.571849475384, 52.5365, 52.5365, 52.5365, 145005.144253002, -16.3893010036415, 126.767936293123, -16.4556458664186, -159.480193437628, -49279.7715746532, 0, ]
  - [16300, -49281.0266431143, 756.66082653371, -48524.3658165806, 501.910563373755, 52.5365, 52.5365, 52.5365, 145005.144253002, 145.14890849762, 163.960659466297, 266.636018861746, 4.85004716481795, -49281.0266431143, 0, ]
  - [16400, -49282.9560660963, 751.87156136163, -48531.0845047347, 498.733733417225, 52.5365, 52.5365, 52.5365, 145005.144253002, -199.187251673439, -115.434931067547, -102.131936757284, -379.994887195487, -49282.9560660963, 0, ]
  - [16500, -49289.3086311418, 752.890282999799, -48536.418348142, 499.409474956109, 52.5365, 52.5365, 52.5365, 145005.144253002, -608.223896142501, -453.14999475685, -518.332032561191, -853.189661109459, -49289.3086311418, 0, ]
  - [16600, -49276.4588731211, 753.5393900016, -48522.9194831195, 499.840042588976, 52.5365, 52.5365, 52.5365, 145005.144253002, 651.052634011914, 758.300784060523, 368.525324079863, 826.33179389536, -49276.4588731211, 0, ]
  - [16700, -49288.4545021582, 751.049981159952, -48537.4045209982, 498.188760336261, 52.5365, 52.5365, 52.5365, 145005.144253002, -325.729304494779, -339.62735190918, -239.351700784078, -398.208860791079, -49288.4545021582, 0, ]
  - [16800, -49283.8185174126, 750.676437602012, -48533.1420798105, 497.940980286025, 52.5365, 52.5365, 52.5365, 145005.144253002, -82.016616593838, -281.225132288779, 43.9674357215526, -8.79215321428581, -49283.8185174126, 0, ]
  - [16900, -49288.2084905938, 753.062015249693, -48535.1464753441, 499.523388915007, 52.5365, 52.5365, 52.5365, 145005.144253002, -207.017918236319, -403.540140451794, -204.109252508442, -13.404361748722, -49288.2084905938, 0, ]
  - [17000, -49283.3678638835, 756.667847254402, -48526.7000166291, 501.915220379582, 52.5365, 52.5365, 52.5365, 145005.144253002, 99.5987119469523, -203.094694886095, 475.771949292331, 26.1188814346223, -49283.3678638835, 0, ]
  - [17100, -49277.1104073705, 758.576117917762, -48518.5342894527, 503.181020286396, 52.5365, 52.5365, 52.5365, 145005.144253002, 440.985012795943, 389.388317834979, 595.663291509855, 337.903429042996, -49277.1104073705, 0, ]
  - [17200, -49284.3451870782, 751.089433590248, -48533.255753488, 498.214930042452, 52.5365, 52.5365, 52.5365, 145005.144253002, -33.6322111440123, -76.7573989032098, 79.4855997168559, -103.624834245682, -49284.3451870782, 0, ]
  - [17300, -49285.4023689262, 752.265882139462, -48533.1364867867, 498.995295476224, 52.5365, 52.5365, 52.5365, 145005.144253002, -357.95765019475, -413.762704915238, -308.688361820806, -351.421883848205, -49285.4023689262, 0, ]
  - [17400, -49282.9717715741, 752.538467605828, -48530.4333039683, 499.176107697755, 52.5365, 52.5365, 52.5365, 145005.144253002, 97.9941990435335, -146.408722901559, 279.748781540064, 160.642538492097, -49282.9717715741, 0, ]
  - [17500, -49296.238799536, 748.920627296114, -48547.3181722399, 496.776310847741, 52.5365, 52.5365, 52.5365, 145005.144253002, -1756.2803329804, -1849.29557802627, -1924.14260340896, -1495.40281750597, -49296.238799536, 0, ]
  - [17600, -49296.4050991007, 752.82052344862, -48543.584575652, 499.363201838213, 52.5365, 52.5365, 52.5365, 145005.144253002, -1593.9482943208, -1486.30328578438, -1458.26749635408, -1837.27410082394, -49296.4050991007, 0, ]
  - [17700, -49280.8196896481, 752.481738377619, -48528.3379512705, 499.138477893368, 52.5365, 52.5365, 52.5365, 145005.144253002, 516.933789741639, 611.9901748292, 392.030592854526, 546.780601541193, -49280.8196896481, 0, ]
  - [17800, -49282.5154896234, 746.922764684238, -48535.5927249391, 495.451082536843, 52.5365, 52.5365, 52.5365, 145005.144253002, 190.805380483297, 381.713585710632, 91.6848391547998, 99.0177165844591, -49282.5154896234, 0, ]
  - [17900, -49287.678882248, 749.278745750082, -48538.4001364979, 497.013859071043, 52.5365, 52.5365, 52.5365, 145005.144253002, -1112.27634962747, -1247.18102542141, -1053.74067116063, -1035.90735230039, -49287.678882248, 0, ]
  - [18000, -49288.5697734091, 755.735805829103, -48532.83396758, 501.296975823428, 52.5365, 52.5365, 52.5365, 145005.144253002, -911.843030555087, -1043.93732727385, -797.321876549846, -894.269887841562, -49288.5697734091, 0, ]
  - [18100, -49282.5288486674, 754.293438926659, -48528.2354097407, 500.34022061791, 52.5365, 52.5365, 52.5365, 145005.144253002, -199.211002911092, -326.682320440682, -133.065047131933, -137.885641160662, -49282.5288486674, 0, ]
  - [18200, -49283.2670363658, 754.615705849531, -48528.6513305163, 500.553987694444, 52.5365, 52.5365, 52.5365, 145005.144253002, 95.7521463608256, 115.693659838739, 343.858731387262, -172.295952143523, -49283.2670363658, 0, ]
  - [18300, -49296.8141436289, 756.377592195193, -48540.4365514337, 501.722687509925, 52.5365, 52.5365, 52.5365, 145005.144253002, -1467.3101081512, -1408.12275065585, -961.839184479899, -2031.96838931786, -49296.8141436289, 0, ]
  - [18400, -49287.9877702979, 751.383319346607, -48536.6044509513, 498.409871237198, 52.5365, 52.5365, 52.5365, 145005.144253002, -500.378442496317, -627.673407873141, -625.810307631818, -247.651611983994, -49287.9877702979, 0, ]
  - [18500, -49287.1631271433, 756.021105302666, -48531.1420218406, 501.486221538925, 52.5365, 52.5365, 52.5365, 145005.144253002, -512.323016833194, -508.295338769499, -657.242227906848, -371.431483823234, -49287.1631271433, 0, ]
  - [18600, -49287.3149478082, 743.470727246939, -48543.8442205612, 493.161266553003, 52.5365, 52.5365, 52.5365, 145005.144253002, -396.534255703362, -262.236548255549, -589.812184201305, -337.554034653232, -49287.3149478082, 0, ]
  - [18700, -49280.6777015262, 751.73038267711, -48528.9473188491, 498.640086342342, 52.5365, 52.5365, 52.5365, 145005.144253002, 326.615330446976, 220.470706460681, 315.285605837834, 444.089679042409, -49280.6777015262, 0, ]
  - [18800, -49281.4515712367, 750.270554251531, -48531.1810169852, 497.671748506131, 52.5365, 52.5365, 52.5365, 145005.144253002, 296.255805883543, 508.222322514109, 185.570741627768, 194.974353508752, -49281.4515712367, 0, ]
  - [18900, -49279.5077392812, 760.853685409719, -48518.6540538715, 504.691783290009, 52.5365, 52.5365, 52.5365, 145005.144253002, 595.13785172757, 630.002587914736, 18.7125283468534, 1136.69843892112, -49279.5077392812, 0, ]
  - [19000, -49277.6871498213, 760.947441083374, -48516.739708738, 504.753973588929, 52.5365, 52.5365, 52.5365, 145005.144253002, 1124.335799387, 1240.80821760488, 1000.74861978995, 1131.45056076617, -49277.6871498213, 0, ]
  - [19100, -49283.2843079226, 757.203138920984, -48526.0811690016, 502.270291677741, 52.5365, 52.5365, 52.5365, 145005.144253002, 121.061912852623, 70.9040726153967, 225.557085084029, 66.7245808584435, -49283.2843079226, 0, ]
  - [19200, -49287.4466188189, 761.384031657079, -48526.0625871618, 505.043574177631, 52.5365, 52.5365, 52.5365, 145005.144253002, -346.558357467173, -341.079054570248, -202.83304924108, -495.762968590195, -49287.4466188189, 0, ]
  - [19300, -49275.7550739767, 755.151848839931, -48520.6032251367, 500.90962369531, 52.5365, 52.5365, 52.5365, 145005.144253002, 372.021529999808, 624.426354383712, -46.1095641925242, 537.747799808235, -49275.7550739767, 0, ]
  - [19400, -49274.6963416251, 744.400515836698, -48530.2958257884, 493.778016751428, 52.5365, 52.5365, 52.5365, 145005.144253002, 638.514994252117, 554.07972221259, 234.456092742982, 1127.00916780078, -49274.6963416251, 0, ]
  - [19500, -49283.5788179824, 755.751994508479, -48527.8268234739, 501.307714147524, 52.5365, 52.5365, 52.5365, 145005.144253002, -313.397452467124, -431.300295844116, 16.8777693759919, -525.769830933247, -49283.5788179824, 0, ]
  - [19600, -49281.7251199924, 753.539527131907, -48528.1855928605, 499.840133550668, 52.5365, 52.5365, 52.5365, 145005.144253002, 36.6644209097619, 14.0028587742911, -137.410526420989, 233.400930375986, -49281.7251199924, 0, ]
  - [19700, -49289.776922238, 760.004131062066, -48529.7727911759, 504.128254313359, 52.5365, 52.5365, 52.5365, 145005.144253002, -611.176880121654, -422.287575222748, -685.58927735935, -725.653787782864, -49289.776922238, 0, ]
  - [19800, -49276.9450430433, 747.594804126056, -48529.3502389172, 495.896861785648, 52.5365, 52.5365, 52.5365, 145005.144253002, 454.369494383228, 137.335568897254, 474.011795761009, 751.76111849142, -49276.9450430433, 0, ]
  - [19900, -49279.5691765165, 753.348698653003, -48526.2204778635, 499.713552622998, 52.5365, 52.5365, 52.5365, 145005.144253002, 398.248159343121, 204.314040711065, 584.479312555919, 405.951124762379, -49279.5691765165, 0, ]
  - [20000, -49281.5817069709, 750.472626554329, -48531.1090804166, 497.805787721303, 52.5365, 52.5365, 52.5365, 145005.144253002, 5.55208493801947, -205.980640502229, 36.0359909233018, 186.600904392987, -50050.3908928237, 0, ]
...
Loop time of 17.2899 on 64 procs for 20000 steps with 11664 atoms

Performance: 99.943 ns/day, 0.240 hours/ns, 1156.744 timesteps/s, 13.492 Matom-step/s
75.8% CPU use with 64 MPI tasks x 1 OpenMP threads

MPI task timing breakdown:
Section |  min time  |  avg time  |  max time  |%varavg| %total
---------------------------------------------------------------
Pair    | 10.372     | 10.806     | 11.24      |   6.4 | 62.50
Neigh   | 0          | 0          | 0          |   0.0 |  0.00
Comm    | 3.5433     | 4.0775     | 4.4455     |  10.7 | 23.58
Output  | 0.02983    | 0.031184   | 0.10695    |   5.4 |  0.18
Modify  | 1.7525     | 1.9319     | 2.0615     |   4.9 | 11.17
Other   |            | 0.4432     |            |       |  2.56

Nlocal:         182.25 ave         189 max         180 min
Histogram: 48 0 0 0 0 0 0 0 0 16
Nghost:        1275.75 ave        1278 max        1269 min
Histogram: 16 0 0 0 0 0 0 0 0 48
Neighs:           8019 ave        8562 max        7734 min
Histogram: 16 32 0 0 0 0 0 0 0 16

Total # of neighbors = 513216
Ave neighs/atom = 44
Neighbor list builds = 0
Dangerous builds = 0
fix fpf all print 1 "${dE} ${lambda}" title "# dE [eV] lambda" screen no file data/forward_${T}K.dat
fix fpf all print 1 "${dE} ${lambda}" title "# dE [eV] lambda" screen no file data/forward_500K.dat
run ${t}
run 100000
Per MPI rank memory allocation (min/avg/max) = 3.736 | 3.736 | 3.736 Mbytes
---
keywords: ['Step', 'PotEng', 'KinEng', 'TotEng', 'Temp', 'Lx', 'Ly', 'Lz', 'Volume', 'Press', 'Pxx', 'Pyy', 'Pzz', 'v_dE', 'v_lambda', ]
data:
  - [20000, -49281.5817069709, 750.472626554329, -48531.1090804166, 497.805787721303, 52.5365, 52.5365, 52.5365, 145005.144253002, 5.55208493802597, -205.980640502231, 36.0359909232943, 186.600904393012, -50050.3908928237, 0, ]
  - [20100, -49286.4494242502, 751.654436108298, -48534.7949881419, 498.589709233072, 52.5365, 52.5365, 52.5365, 145005.144253002, -495.689121880035, -1009.79891392956, -161.679830338064, -315.588621372484, -50060.7917445338, 1.2558053968507e-13, ]
  - [20200, -49285.9867266995, 756.642168995579, -48529.3445577039, 501.898187398753, 52.5365, 52.5365, 52.5365, 145005.144253002, -97.7748718322841, 67.4606346220768, 85.7938705962914, -446.57912071522, -50062.5330474549, 4.00518903939584e-12, ]
  - [20300, -49277.0893333348, 762.088602236739, -48515.0007310981, 505.510932079842, 52.5365, 52.5365, 52.5365, 145005.144253002, 630.556554042553, 652.237572855516, 539.505585972477, 699.926503299667, -50069.2575849206, 3.03129989146628e-11, ]
  - [20400, -49280.4169536975, 751.370349943156, -48529.0466037544, 498.401268333011, 52.5365, 52.5365, 52.5365, 145005.144253002, 96.4933941597998, -219.112496749624, 155.810119713913, 352.782559515111, -50075.5505761005, 1.2731250673451e-10, ]
  - [20500, -49276.0068579848, 754.193600198866, -48521.8132577859, 500.273995288997, 52.5365, 52.5365, 52.5365, 145005.144253002, 513.474607709772, 350.927925566667, 467.719473470373, 721.776424092277, -50056.7793933199, 3.87229564589844e-10, ]
  - [20600, -49283.5500686822, 748.674201445944, -48534.8758672363, 496.612850902477, 52.5365, 52.5365, 52.5365, 145005.144253002, -124.299862677845, -262.373903661264, -276.590942175112, 166.065257802845, -50055.680042815, 9.60331117066399e-10, ]
  - [20700, -49285.2820332534, 752.97753787385, -48532.3044953795, 499.467353124842, 52.5365, 52.5365, 52.5365, 145005.144253002, -240.430696084612, -252.902980052555, -302.694304026117, -165.694804175163, -50055.4761323271, 2.06871232013244e-09, ]
  - [20800, -49283.7865172087, 755.209745877272, -48528.5767713314, 500.948028134407, 52.5365, 52.5365, 52.5365, 145005.144253002, -229.595235745155, 54.7993633626607, -63.0187658809323, -680.566304717194, -50068.06119879, 4.0197947066522e-09, ]
  - [20900, -49286.5842492538, 749.785535211537, -48536.7987140422, 497.350024199713, 52.5365, 52.5365, 52.5365, 145005.144253002, -465.671647452847, -193.002485689467, -348.892384395932, -855.12007227314, -50045.0166648893, 7.21953805066232e-09, ]
  - [21000, -49286.5677826776, 755.199832197603, -48531.36795048, 500.941452162223, 52.5365, 52.5365, 52.5365, 145005.144253002, -810.823049279917, -1273.32004638075, -576.018008127361, -583.131093331632, -50034.24155691, 1.218536857e-08, ]
  - [21100, -49280.8259141812, 757.92554604616, -48522.9003681351, 502.749480971632, 52.5365, 52.5365, 52.5365, 145005.144253002, 224.423303321949, 179.111892859709, 138.691362492446, 355.466654613694, -50035.1209601993, 1.95588260943488e-08, ]
  - [21200, -49282.3734688272, 754.864943483892, -48527.5085253433, 500.719312760959, 52.5365, 52.5365, 52.5365, 145005.144253002, -9.60673830961941, 29.4627610574691, -102.849271809133, 44.5662958228072, -50034.3414856615, 3.01179328132704e-08, ]
  - [21300, -49288.6905393819, 754.669404178996, -48534.0211352029, 500.589607033848, 52.5365, 52.5365, 52.5365, 145005.144253002, -713.144110642151, -946.269365545507, -602.714077897579, -590.448888483365, -50024.8585773944, 4.47892862063179e-08, ]
  - [21400, -49289.9401909272, 752.948084589957, -48536.9921063372, 499.447816082889, 52.5365, 52.5365, 52.5365, 145005.144253002, -948.681056356277, -952.899508623838, -1223.03956943539, -670.104091009606, -50023.6680409443, 6.46598787448807e-08, ]
  - [21500, -49279.8246391113, 746.819006257919, -48533.0056328533, 495.382257181568, 52.5365, 52.5365, 52.5365, 145005.144253002, 257.046152215038, 226.748276611903, 457.76137928166, 86.6288007515481, -50014.979489036, 9.09886469429883e-08, ]
  - [21600, -49283.0343602885, 755.272934164471, -48527.761426124, 500.98994238147, 52.5365, 52.5365, 52.5365, 145005.144253002, 267.347327361464, 410.873613655727, 311.489104635873, 79.6792637927945, -50024.6686212839, 1.25217752321905e-07, ]
  - [21700, -49281.1871775339, 757.395142353454, -48523.7920351805, 502.397651979188, 52.5365, 52.5365, 52.5365, 145005.144253002, 192.262308738335, 406.206635613616, 153.272166255908, 17.3081243454796, -50032.2796867422, 1.68983596840977e-07, ]
  - [21800, -49281.148272116, 764.033306954507, -48517.1149651615, 506.800899534563, 52.5365, 52.5365, 52.5365, 145005.144253002, 13.675323900277, -149.43370015219, -4.7951226729468, 195.25479452597, -50034.5634186216, 2.24127575334849e-07, ]
  - [21900, -49275.691400201, 759.484602675331, -48516.2067975257, 503.783639161985, 52.5365, 52.5365, 52.5365, 145005.144253002, 726.469439009219, 890.220743063413, 689.128754062916, 600.058819901328, -50028.2843878001, 2.92706567484841e-07, ]
  - [22000, -49285.9687440364, 753.330598667274, -48532.6381453691, 499.701546485352, 52.5365, 52.5365, 52.5365, 145005.144253002, -434.181388987694, -11.4132998800506, -652.50115415668, -638.629712926354, -50039.7846760553, 3.7700317184e-07, ]
  - [22100, -49293.8334908619, 758.46781014532, -48535.3656807166, 503.109177245, 52.5365, 52.5365, 52.5365, 145005.144253002, -1268.94015792949, -1221.62126907209, -1636.91236258113, -948.286842135262, -50035.8216465953, 4.79535684391045e-07, ]
  - [22200, -49284.375683295, 748.90543841544, -48535.4702448795, 496.766235713164, 52.5365, 52.5365, 52.5365, 145005.144253002, -10.1749728690015, -238.27496474565, 80.3643631357214, 127.385683002924, -50031.9181322954, 6.03067824188202e-07, ]
  - [22300, -49288.1118452936, 752.670628542984, -48535.4412167506, 499.263773092999, 52.5365, 52.5365, 52.5365, 145005.144253002, -298.427328604155, -283.085804397267, -212.16120537859, -400.034976036605, -50030.0109841989, 7.50618208481703e-07, ]
  - [22400, -49280.5023464964, 757.954398554548, -48522.5479479419, 502.768619505348, 52.5365, 52.5365, 52.5365, 145005.144253002, 273.359712027034, 433.734054071046, 639.643323866194, -253.298241856137, -50028.3688157171, 9.25469579851522e-07, ]
  - [22500, -49279.8070706053, 756.632691407085, -48523.1743791983, 501.891900695895, 52.5365, 52.5365, 52.5365, 145005.144253002, 416.491571575233, 346.105483271343, 451.319889281951, 452.049342172405, -50020.2831221972, 1.13117778778076e-06, ]
  - [22600, -49285.1099483572, 759.009984173635, -48526.0999641836, 503.468813772299, 52.5365, 52.5365, 52.5365, 145005.144253002, -150.542940645754, -52.1637189626678, -44.420566724975, -355.044536249615, -50021.557771508, 1.37158052711496e-06, ]
  - [22700, -49284.6901202665, 754.253695486385, -48530.4364247801, 500.313857878095, 52.5365, 52.5365, 52.5365, 145005.144253002, -421.826829712534, -675.397847713271, -614.415948152201, 24.3333067278672, -50029.2613939983, 1.65080583583745e-06, ]
  - [22800, -49281.3676761246, 753.298262325367, -48528.0694137993, 499.68009704458, 52.5365, 52.5365, 52.5365, 145005.144253002, 325.836764524414, 412.044287175646, 399.799237719135, 165.666768678459, -50021.3830524027, 1.97328035457892e-06, ]
  - [22900, -49282.6840418024, 747.583089850216, -48535.1009519521, 495.889091436529, 52.5365, 52.5365, 52.5365, 145005.144253002, 40.9656277287643, -105.954831845775, 293.191407030822, -64.3396919987515, -50034.5744014723, 2.343737350267e-06, ]
  - [23000, -49293.6983458643, 751.346950114953, -48542.3513957493, 498.385746687718, 52.5365, 52.5365, 52.5365, 145005.144253002, -1737.2963150731, -1683.93275668144, -1907.49248851433, -1620.46370002352, -50045.0683385987, 2.76722450631e-06, ]
  - [23100, -49280.4777860263, 746.375259596088, -48534.1025264302, 495.087909794701, 52.5365, 52.5365, 52.5365, 145005.144253002, 234.524467412525, 168.289806726774, 215.039109742902, 320.244485767906, -50040.2998485238, 3.2491114816967e-06, ]
  - [23200, -49278.4390670754, 738.699710412697, -48539.7393566627, 489.996541139492, 52.5365, 52.5365, 52.5365, 145005.144253002, 228.30726822748, 55.64434137872, 260.150602232564, 369.126861071156, -50034.7208019361, 3.79509724138202e-06, ]
  - [23300, -49291.2145786291, 753.141903986881, -48538.0726746422, 499.576380955407, 52.5365, 52.5365, 52.5365, 145005.144253002, -1502.45690688676, -1473.9115436212, -1457.10612976871, -1576.35304727038, -50058.1706493636, 4.41121716031674e-06, ]
  - [23400, -49282.1220290338, 751.910560518188, -48530.2114685156, 498.7596024565, 52.5365, 52.5365, 52.5365, 145005.144253002, -21.4769023225525, -13.2040694013251, -89.3682877687116, 38.1416502023774, -50056.6940410187, 5.10384990346721e-06, ]
  - [23500, -49288.6342410509, 747.945127044039, -48540.6891140068, 496.129239050284, 52.5365, 52.5365, 52.5365, 145005.144253002, -1079.19999610575, -846.926886110938, -1550.53732218454, -840.13578002178, -50064.3751313316, 5.87972408415916e-06, ]
  - [23600, -49290.3827676897, 766.749353672183, -48523.6334140176, 508.602515913282, 52.5365, 52.5365, 52.5365, 145005.144253002, -1008.90394068188, -1010.92184049393, -1090.38121867292, -925.408762878798, -50055.5282886825, 6.74592470306796e-06, ]
  - [23700, -49285.9146706556, 750.04432584483, -48535.8703448108, 497.521685990567, 52.5365, 52.5365, 52.5365, 145005.144253002, -334.61817350968, -204.391612332816, -662.600872589473, -136.862035606751, -50046.727041438, 7.70989937016563e-06, ]
  - [23800, -49282.6779643356, 749.80256400285, -48532.8754003327, 497.361319789416, 52.5365, 52.5365, 52.5365, 145005.144253002, 191.789131455191, 400.251907449287, 51.9537036953038, 123.16178322098, -50032.3898772325, 8.77946431192315e-06, ]
  - [23900, -49276.494325308, 747.805310104805, -48528.6890152032, 496.03649525243, 52.5365, 52.5365, 52.5365, 145005.144253002, 703.537629940757, 626.415177094311, 651.703924983016, 832.493787744944, -50038.9317281853, 9.96281016605489e-06, ]
  - [24000, -49290.423360042, 750.069578759327, -48540.3537812827, 497.538436830702, 52.5365, 52.5365, 52.5365, 145005.144253002, -469.71633743525, -511.102181042456, -86.5881084753228, -811.45872278797, -50027.9907931912, 1.126850756608e-05, ]
  - [24100, -49286.4654729338, 746.370821206004, -48540.0946517278, 495.084965708277, 52.5365, 52.5365, 52.5365, 145005.144253002, -379.916890816176, -552.234271534474, -530.734496170487, -56.7819047435646, -50020.0123327432, 1.2705512517964e-05, ]
  - [24200, -49291.0414946844, 757.92071495439, -48533.12077973, 502.74627639713, 52.5365, 52.5365, 52.5365, 145005.144253002, -734.399349556529, -1012.95074115244, -516.572519561916, -673.674787955232, -50007.135231856, 1.42831715710919e-05, ]
  - [24300, -49288.6579290431, 744.945455165948, -48543.7124738772, 494.139487566563, 52.5365, 52.5365, 52.5365, 145005.144253002, -599.993748027517, -1194.77046135698, -183.852261365556, -421.358521360015, -50007.293649028, 1.60112267858132e-05, ]
  - [24400, -49287.7985614186, 743.339331074848, -48544.4592303438, 493.074108444051, 52.5365, 52.5365, 52.5365, 145005.144253002, -522.568878017858, -909.138452267277, -277.112362097413, -381.455819688881, -50019.2003742497, 1.78998204997854e-05, ]
  - [24500, -49293.4153679167, 751.148685154826, -48542.2666827619, 498.25423297068, 52.5365, 52.5365, 52.5365, 145005.144253002, -867.489439372277, -722.275482432507, -950.567642636105, -929.625193048217, -50041.8439099853, 1.99594998953344e-05, ]
  - [24600, -49288.1119023016, 755.316155564482, -48532.7957467371, 501.018612132128, 52.5365, 52.5365, 52.5365, 145005.144253002, -905.783358271609, -846.194700877036, -945.996342729781, -925.159031208012, -50056.2666567633, 2.2201221370035e-05, ]
  - [24700, -49281.2542341736, 748.901037955484, -48532.3531962181, 496.763316786668, 52.5365, 52.5365, 52.5365, 145005.144253002, -193.191860449607, -172.805823811267, -574.272736617281, 167.502979079729, -50060.0934150502, 2.46363547127047e-05, ]
  - [24800, -49285.4569170282, 754.147342002067, -48531.3095750262, 500.243311161047, 52.5365, 52.5365, 52.5365, 145005.144253002, -536.744885221566, -682.582635232126, -709.675548276178, -217.976472156396, -50048.9683210407, 2.7276687086994e-05, ]
  - [24900, -49286.2814532892, 745.073322381271, -48541.2081309079, 494.224304837167, 52.5365, 52.5365, 52.5365, 145005.144253002, -320.664729785133, -291.490657969604, -469.734565274919, -200.768966110879, -50028.6545113715, 3.01344268247409e-05, ]
  - [25000, -49283.3974668759, 755.567290455277, -48527.8301764207, 501.185195692558, 52.5365, 52.5365, 52.5365, 145005.144253002, 206.62871107118, 276.581149136716, 231.741253868452, 111.563730208375, -50028.6826368506, 3.322220703125e-05, ]
  - [25100, -49285.4770903451, 751.874762903478, -48533.6023274417, 498.735857073712, 52.5365, 52.5365, 52.5365, 145005.144253002, -347.091873013067, -596.140313842108, -271.055580685461, -174.07972451163, -50031.9183238294, 3.6553089004642e-05, ]
  - [25200, -49284.7515454925, 748.696112525294, -48536.0554329672, 496.627385026347, 52.5365, 52.5365, 52.5365, 145005.144253002, -4.04093880731145, 107.498033129806, -342.87085148006, 223.250001928317, -50034.2474934376, 4.01405654714096e-05, ]
  - [25300, -49284.3626806987, 753.202284129331, -48531.1603965694, 499.616432495346, 52.5365, 52.5365, 52.5365, 145005.144253002, 23.47294952743, -164.368128759512, 104.63856621, 130.148411131801, -50022.5645988113, 4.39985636403039e-05, ]
  - [25400, -49278.1385078732, 757.16678646992, -48520.9717214033, 502.246178259214, 52.5365, 52.5365, 52.5365, 145005.144253002, 601.954301273118, 529.049496778902, 478.120628889419, 798.692778151033, -50028.0614418701, 4.81414480766634e-05, ]
  - [25500, -49281.63722212, 753.565005896186, -48528.0722162238, 499.857034202169, 52.5365, 52.5365, 52.5365, 145005.144253002, 363.89812156072, -242.970482796124, 397.463650128988, 937.201197349297, -50030.0910890164, 5.25840233992879e-05, ]
  - [25600, -49281.3023185323, 750.617845720459, -48530.6844728119, 497.90211494075, 52.5365, 52.5365, 52.5365, 145005.144253002, 316.116875262142, 423.024850398541, 192.060521356737, 333.265254031149, -50031.6412957222, 5.7341536801945e-05, ]
  - [25700, -49292.7237977615, 760.991901261287, -48531.7318965002, 504.783465049517, 52.5365, 52.5365, 52.5365, 145005.144253002, -1190.31271760044, -850.410090328893, -1418.56767782077, -1301.96038465167, -50022.962235135, 6.24296804015908e-05, ]
  - [25800, -49290.3784157033, 760.018610030894, -48530.3598056724, 504.137858547049, 52.5365, 52.5365, 52.5365, 145005.144253002, -721.28668837464, -877.688467303948, -624.155294960102, -662.016302859868, -50036.334452094, 6.78645934153687e-05, ]
  - [25900, -49282.8457840323, 760.16269151509, -48522.6830925172, 504.233431115852, 52.5365, 52.5365, 52.5365, 145005.144253002, -67.9550367842775, 35.3325598709788, -206.975676856026, -32.2219933677848, -50044.8256518835, 7.36628641684442e-05, ]
  - [26000, -49284.1955903249, 756.162718015672, -48528.0328723092, 501.580156514906, 52.5365, 52.5365, 52.5365, 145005.144253002, -26.7164909609316, -11.776922947986, -194.500083388646, 126.127533453835, -50027.3030117728, 7.98415319347201e-05, ]
  - [26100, -49275.0020235208, 753.255092048732, -48521.7469314721, 499.651461205235, 52.5365, 52.5365, 52.5365, 145005.144253002, 526.825854021896, 807.792620765287, 235.863966094827, 536.820975205569, -50041.7045652465, 8.64180886124637e-05, ]
  - [26200, -49292.9850413275, 752.744105508009, -48540.2409358195, 499.312512057166, 52.5365, 52.5365, 52.5365, 145005.144253002, -1140.3069556724, -1078.14953537777, -1569.52009640265, -773.251235236768, -50032.9822563667, 9.34104802368714e-05, ]
  - [26300, -49277.355624214, 745.336269228347, -48532.0193549857, 494.398723540403, 52.5365, 52.5365, 52.5365, 145005.144253002, 292.752672192395, 141.478951142213, 504.77169731595, 232.007368119024, -50032.9246035631, 0.000100837108331577, ]
  - [26400, -49281.5826621756, 758.106237837719, -48523.4764243379, 502.869338000989, 52.5365, 52.5365, 52.5365, 145005.144253002, 698.335445149806, 900.037691789984, 633.625205383142, 561.343438276291, -50012.3439844856, 0.000108716831101108, ]
  - [26500, -49269.5910742048, 752.447882809229, -48517.1431913956, 499.116020714658, 52.5365, 52.5365, 52.5365, 145005.144253002, 1418.5928301997, 1448.81701105168, 1601.28962205104, 1205.67185749639, -50019.6906480075, 0.000117068964466276, ]
  - [26600, -49279.5842989295, 763.931795928625, -48515.6525030009, 506.733564931789, 52.5365, 52.5365, 52.5365, 145005.144253002, 527.285578190226, 620.43091934949, 312.421123686582, 649.004691534606, -50023.3391199402, 0.000125913282944476, ]
  - [26700, -49285.8296156525, 761.221846707387, -48524.6077689451, 504.935993162973, 52.5365, 52.5365, 52.5365, 145005.144253002, -466.359324304581, -517.135067782263, -559.41114558661, -322.531759544865, -50028.4079742448, 0.000135270020376872, ]
  - [26800, -49287.8646448035, 767.619066357751, -48520.2455784457, 509.179416380016, 52.5365, 52.5365, 52.5365, 145005.144253002, -547.28935280657, -460.798590036836, -776.66462541588, -404.404842966987, -50009.7611280239, 0.000145159870504403, ]
  - [26900, -49282.0496307993, 761.293626806029, -48520.7560039932, 504.983606556564, 52.5365, 52.5365, 52.5365, 145005.144253002, 179.965439988433, 301.349210148262, 286.046275907703, -47.4991660906652, -50026.6539043691, 0.000155603987394582, ]
  - [27000, -49283.509448447, 751.919588336587, -48531.5898601105, 498.765590816489, 52.5365, 52.5365, 52.5365, 145005.144253002, -439.819326639774, -578.067103583964, -341.77252000432, -399.618356331036, -50031.708945505, 0.00016662398572099, ]
  - [27100, -49277.8293517924, 751.55723414646, -48526.2721176459, 498.52523293178, 52.5365, 52.5365, 52.5365, 145005.144253002, 535.15700780663, 496.877529500668, 564.526521686868, 544.066972232355, -50036.7791538977, 0.000178241940897419, ]
  - [27200, -49286.8541619178, 761.314291814035, -48525.5398701038, 504.997314132596, 52.5365, 52.5365, 52.5365, 145005.144253002, -358.262984621036, -271.140664388445, -125.958962665529, -677.689326809134, -50037.8713979791, 0.000190480389068545, ]
  - [27300, -49277.0336838937, 756.848075841317, -48520.1856080524, 502.034770154623, 52.5365, 52.5365, 52.5365, 145005.144253002, 440.093507655628, 541.445304367478, 420.818084580146, 358.017134019259, -50056.4994421378, 0.000203362326959055, ]
  - [27400, -49285.4876824544, 762.282576237845, -48523.2051062165, 505.639599504877, 52.5365, 52.5365, 52.5365, 145005.144253002, -494.896585252172, -446.813267017965, -554.838226017309, -483.038262721243, -50034.0811541066, 0.000216911211583103, ]
  - [27500, -49282.3278750397, 755.655375106941, -48526.6724999328, 501.243624271904, 52.5365, 52.5365, 52.5365, 145005.144253002, 69.7179127235926, 120.098507479508, 649.249342924751, -560.194112233482, -50038.5908126773, 0.000231150959815979, ]
  - [27600, -49286.1113856099, 756.615003259208, -48529.4963823507, 501.880167739788, 52.5365, 52.5365, 52.5365, 145005.144253002, -501.661723328468, -580.568962416347, -680.047466600131, -244.368740968927, -50044.4539706378, 0.00024610594782986, ]
  - [27700, -49288.098530348, 740.254374203407, -48547.8441561446, 491.027785458861, 52.5365, 52.5365, 52.5365, 145005.144253002, -765.670829894143, -731.028199047742, -933.600168430188, -632.3841222045, -50038.0217663509, 0.000261801010395495, ]
  - [27800, -49295.8902893712, 750.439421454749, -48545.4508679165, 497.783762013545, 52.5365, 52.5365, 52.5365, 145005.144253002, -1474.59301386571, -1463.20600534607, -1214.40971239239, -1746.16332385868, -50023.2542940627, 0.000278261440051671, ]
  - [27900, -49291.8080933827, 745.617209898148, -48546.1908834845, 494.585077960917, 52.5365, 52.5365, 52.5365, 145005.144253002, -1315.82361740419, -1681.5000749093, -1025.30101733362, -1240.66975996964, -50030.5005521951, 0.000295512986144304, ]
  - [28000, -49294.8573736404, 750.923925492951, -48543.9334481475, 498.105144707406, 52.5365, 52.5365, 52.5365, 145005.144253002, -1651.10684931112, -1784.03378414981, -1529.8247597256, -1639.46200405794, -50015.1339291626, 0.00031358185373696, ]
  - [28100, -49288.7499513658, 749.240157586054, -48539.5097937797, 496.988262652585, 52.5365, 52.5365, 52.5365, 145005.144253002, -382.512145499499, -385.210677311684, -374.97034956275, -387.355409624062, -50011.4871671842, 0.000332494702394641, ]
  - [28200, -49283.2325464074, 752.952531303375, -48530.280015104, 499.450765690373, 52.5365, 52.5365, 52.5365, 145005.144253002, -168.9493220248, -281.512341328607, 16.0309741525987, -241.366598898387, -50017.6715131014, 0.000352278644842627, ]
  - [28300, -49283.3164161321, 750.323720397225, -48532.9926957348, 497.707014835776, 52.5365, 52.5365, 52.5365, 145005.144253002, -147.887947152952, 32.919159259142, -249.390173531207, -227.192827186789, -50039.3862748716, 0.000372961245502164, ]
  - [28400, -49279.0930832467, 743.309551894553, -48535.7835313522, 493.054355227504, 52.5365, 52.5365, 52.5365, 145005.144253002, 616.617736585572, 524.049620873779, 494.713948913822, 831.089639969118, -50033.0862096171, 0.000394570518904788, ]
  - [28500, -49276.8081180519, 751.43147158131, -48525.3766464706, 498.441811724137, 52.5365, 52.5365, 52.5365, 145005.144253002, 430.185321178711, 100.324996774454, 680.636240987683, 509.594725773997, -50037.7824220141, 0.000417134927987054, ]
  - [28600, -49279.0783071463, 755.530697236762, -48523.5476099096, 501.160922567432, 52.5365, 52.5365, 52.5365, 145005.144253002, 359.693411410018, 663.23825243101, 202.376310233661, 213.465671565385, -50034.8082735422, 0.000440683382267422, ]
  - [28700, -49283.4954411556, 744.44535354091, -48539.0500876147, 493.807758633909, 52.5365, 52.5365, 52.5365, 145005.144253002, -391.947001019969, -213.496569518235, -586.338732686534, -376.005700855134, -50040.7862226832, 0.000465245235907057, ]
  - [28800, -49283.952341305, 752.236604739242, -48531.7157365658, 498.975875101964, 52.5365, 52.5365, 52.5365, 145005.144253002, -462.685437616654, -97.7119258391464, -379.900000174045, -910.444386836769, -50037.8422746763, 0.000490850285656287, ]
  - [28900, -49285.3753999247, 759.140176587311, -48526.2352233374, 503.555173400555, 52.5365, 52.5365, 52.5365, 145005.144253002, -66.5089647874318, 5.70571114703904, -393.922935006427, 188.690329497093, -50036.6675703896, 0.000517528768688429, ]
  - [29000, -49276.3961020802, 757.152157348582, -48519.2439447316, 502.236474425904, 52.5365, 52.5365, 52.5365, 145005.144253002, 812.801083544646, 758.511584799074, 1054.79132073955, 625.100345095319, -50032.2844593297, 0.00054531136032273, ]
  - [29100, -49285.0727810699, 738.840701347587, -48546.2320797223, 490.090063675719, 52.5365, 52.5365, 52.5365, 145005.144253002, -512.740325523064, -817.478876459466, -355.031402525607, -365.710697584119, -50034.1980446387, 0.000574229171638096, ]
  - [29200, -49282.4523096779, 743.693288726509, -48538.7590209514, 493.308896711298, 52.5365, 52.5365, 52.5365, 145005.144253002, -40.7458668404863, 176.382572789576, -245.104252795462, -53.5159205155741, -50029.0669771099, 0.000604313746979337, ]
  - [29300, -49284.0936520269, 767.476988192314, -48516.6166638346, 509.085172658712, 52.5365, 52.5365, 52.5365, 145005.144253002, -47.7882344335755, -430.763914704881, 174.667332909512, 112.731878494645, -50047.8587977695, 0.000635597061357593, ]
  - [29400, -49285.1398028166, 752.970557297949, -48532.1692455186, 499.46272274798, 52.5365, 52.5365, 52.5365, 145005.144253002, -84.4066121507123, -445.227638332554, 124.089226862076, 67.9185750183465, -50047.163644646, 0.000668111517746635, ]
  - [29500, -49283.9518975492, 751.951332639856, -48532.0005649094, 498.78664754439, 52.5365, 52.5365, 52.5365, 145005.144253002, -30.164930675975, -18.0894708640496, -307.649119098225, 235.243797934347, -50029.1822714063, 0.000701889944276683, ]
  - [29600, -49288.6802083842, 756.990747163875, -48531.6894612203, 502.129407330715, 52.5365, 52.5365, 52.5365, 145005.144253002, -892.063303395942, -932.358464857547, -800.932674623608, -942.89877070667, -50030.2353232313, 0.000736965591327429, ]
  - [29700, -49278.2408293727, 743.398088429588, -48534.8427409431, 493.113083551504, 52.5365, 52.5365, 52.5365, 145005.144253002, 478.751772456426, 651.315720418601, 60.2441230984205, 724.695473852256, -50036.9345247771, 0.000773372128521878, ]
  - [29800, -49283.7743024416, 753.544525512085, -48530.2297769295, 499.843449091428, 52.5365, 52.5365, 52.5365, 145005.144253002, 20.149478743896, 131.943640725924, -136.877922587695, 65.3827180934601, -50023.8504423378, 0.00081114364162266, ]
  - [29900, -49286.8911739129, 758.377996987464, -48528.5131769254, 503.049602107663, 52.5365, 52.5365, 52.5365, 145005.144253002, -605.644165625583, -999.14204708097, -237.703409394906, -580.087040400875, -50035.3628720682, 0.000850314629332433, ]
  - [30000, -49284.5075822346, 751.002135736594, -48533.505446498, 498.157023364358, 52.5365, 52.5365, 52.5365, 145005.144253002, -194.33203425734, -252.780909669563, -107.91650758503, -222.298685517427, -50036.8166013698, 0.000890920000000001, ]
  - [30100, -49285.220900677, 757.128597573783, -48528.0923031033, 502.220846684348, 52.5365, 52.5365, 52.5365, 145005.144253002, -124.287883144547, 127.520759568651, 52.5096700023769, -552.89407900467, -50036.1827738815, 0.000932995068233718, ]
  - [30200, -49286.4808601009, 755.592543237692, -48530.8883168632, 501.20194644508, 52.5365, 52.5365, 52.5365, 145005.144253002, -520.947516276396, -928.045430228508, -672.782322248488, 37.9852036478072, -50036.2408033193, 0.000976575551423828, ]
  - [30300, -49283.2819057879, 764.447235857852, -48518.8346699301, 507.07546811508, 52.5365, 52.5365, 52.5365, 145005.144253002, 169.48958785689, -236.790651820585, 366.955652737315, 378.303762653943, -50035.9416220162, 0.00102169756617526, ]
  - [30400, -49286.1723816081, 762.665606517323, -48523.5067750908, 505.89367231613, 52.5365, 52.5365, 52.5365, 145005.144253002, -524.584433464408, -438.253753406126, -401.017461596731, -734.482085390368, -50025.6649048275, 0.00106839762465251, ]
  - [30500, -49285.3079018712, 754.762791279382, -48530.5451105918, 500.651552849625, 52.5365, 52.5365, 52.5365, 145005.144253002, -296.86334669401, -232.166229672446, -198.837658731056, -459.586151678527, -50010.3404661514, 0.00111671263083812, ]
  - [30600, -49283.8141848728, 748.7293639192, -48535.0848209536, 496.649441442198, 52.5365, 52.5365, 52.5365, 145005.144253002, -26.2788266616866, 14.5658260781885, 165.104171198717, -258.506477261967, -50036.3579127316, 0.00116667987670637, ]
  - [30700, -49283.5534262805, 758.829165536726, -48524.7242607437, 503.348872603499, 52.5365, 52.5365, 52.5365, 145005.144253002, 224.281749206614, 234.245863017756, 222.845480486005, 215.753904116081, -50023.8608734548, 0.00121833703831365, ]
  - [30800, -49284.1276931311, 746.425182158448, -48537.7025109727, 495.121024580772, 52.5365, 52.5365, 52.5365, 145005.144253002, -9.24388284577079, -32.4849794748699, 45.2905494512174, -40.5372185136567, -50028.3792622658, 0.00127172217180712, ]
  - [30900, -49286.963963924, 761.143497275197, -48525.8204666488, 504.884022179051, 52.5365, 52.5365, 52.5365, 145005.144253002, -409.340724438246, -69.274682301256, -691.301841234526, -467.445649778956, -50035.5291913161, 0.00132687370935312, ]
  - [31000, -49286.056279787, 748.59147124436, -48537.4648085426, 496.557974053261, 52.5365, 52.5365, 52.5365, 145005.144253002, -497.057342498219, -343.655662123917, -609.490920426298, -538.025444944442, -50031.8558393407, 0.00138383045498687, ]
  - [31100, -49285.7812536921, 763.906372288201, -48521.8748814039, 506.716700845212, 52.5365, 52.5365, 52.5365, 145005.144253002, -440.01807400822, -678.802469647403, -570.76572631977, -70.4860260574896, -50025.94345805, 0.00144263158038501, ]
  - [31200, -49286.5367191525, 758.950131295879, -48527.5865878566, 503.429111979183, 52.5365, 52.5365, 52.5365, 145005.144253002, -327.88123806363, -442.012911246797, -149.832371152156, -391.798431791937, -50028.8422546524, 0.00150331662056234, ]
  - [31300, -49280.1059015559, 758.603948119503, -48521.5019534364, 503.199480700554, 52.5365, 52.5365, 52.5365, 145005.144253002, 304.327845052717, 174.251454388561, 466.957548852121, 271.774531917474, -50041.673208046, 0.00156592546949443, ]
  - [31400, -49281.0935819795, 762.898473010895, -48518.1951089686, 506.048138027689, 52.5365, 52.5365, 52.5365, 145005.144253002, 238.938337915117, 269.594198006747, 403.546892860652, 43.6739228779468, -50035.938660866, 0.00163049837566735, ]
  - [31500, -49280.0075685797, 759.941018027048, -48520.0665505527, 504.086389982802, 52.5365, 52.5365, 52.5365, 145005.144253002, 693.20608059808, 681.632021071847, 895.946221062026, 502.039999660366, -50027.9384720716, 0.00169707593755625, ]
  - [31600, -49280.6917351701, 752.368244800701, -48528.3234903694, 499.063194988356, 52.5365, 52.5365, 52.5365, 145005.144253002, 291.840423382099, 524.781076391742, 387.848338401004, -37.1081446464512, -50018.2571578729, 0.00176569909903396, ]
  - [31700, -49297.635241088, 752.206148178842, -48545.4290929092, 498.955672563585, 52.5365, 52.5365, 52.5365, 145005.144253002, -1579.08674312754, -1635.21756393566, -1602.70548368211, -1499.33718176485, -50007.0387984926, 0.0018364091447113, ]
[...]
  - [232600, -49283.2888463754, 757.792105403323, -48525.4967409721, 502.66096671812, 52.5365, 52.5365, 52.5365, 145005.144253002, 160.012812177807, 207.371361187266, 48.4812213427547, 224.185854003398, -50020.7688257133, 0.000216911211583102, ]
  - [232700, -49271.8640462161, 767.901872639498, -48503.9621735766, 509.367008303926, 52.5365, 52.5365, 52.5365, 145005.144253002, 1503.51325310465, 1493.46497531228, 1704.36150927914, 1312.71327472253, -50037.494459803, 0.000203362326959055, ]
  - [232800, -49276.580467646, 758.107575902449, -48518.4728917435, 502.87022557016, 52.5365, 52.5365, 52.5365, 145005.144253002, 712.901152020498, 645.046887703212, 936.027645451713, 557.628922906571, -50040.1610838995, 0.000190480389068545, ]
  - [232900, -49284.6867550103, 759.341030774649, -48525.3457242357, 503.68840461167, 52.5365, 52.5365, 52.5365, 145005.144253002, -465.865143163949, -306.941893234381, -580.824359326438, -509.82917693103, -50033.0875858063, 0.000178241940897418, ]
  - [233000, -49284.7838907808, 755.513624541523, -48529.2702662393, 501.149597855242, 52.5365, 52.5365, 52.5365, 145005.144253002, -46.3140392171885, -12.069107679387, -83.7080472688678, -43.1649627033107, -50027.623885887, 0.000166623985720989, ]
  - [233100, -49287.7358824378, 750.291669173323, -48537.4442132644, 497.685754520345, 52.5365, 52.5365, 52.5365, 145005.144253002, -681.506259428746, -594.524199909286, -861.984626075484, -588.00995230147, -50035.115002566, 0.000155603987394581, ]
  - [233200, -49284.475245188, 761.13898452033, -48523.3362606677, 504.881028764752, 52.5365, 52.5365, 52.5365, 145005.144253002, -377.622088051402, -50.5579566083832, -325.204385400017, -757.103922145802, -50041.9304107448, 0.000145159870504403, ]
  - [233300, -49279.3520114613, 751.85274698658, -48527.4992644748, 498.72125340868, 52.5365, 52.5365, 52.5365, 145005.144253002, 465.523622983206, 635.751723003308, 411.744658593628, 349.074487352682, -50036.188362561, 0.000135270020376871, ]
  - [233400, -49284.6082610603, 760.053581720373, -48524.5546793399, 504.161056074597, 52.5365, 52.5365, 52.5365, 145005.144253002, -142.983650857177, -397.853687088198, 193.478732685855, -224.575998169192, -50016.6005343533, 0.000125913282944476, ]
  - [233500, -49290.8354924274, 758.218097687157, -48532.6173947402, 502.943537216914, 52.5365, 52.5365, 52.5365, 145005.144253002, -1054.72469299023, -1057.31513746342, -1052.19907179077, -1054.6598697165, -50018.3962893515, 0.000117068964466275, ]
  - [233600, -49281.7562882606, 760.755288646742, -48521.0009996138, 504.626514449588, 52.5365, 52.5365, 52.5365, 145005.144253002, -55.2517152496592, 2.24503864142292, -164.362044003748, -3.63814038665221, -50020.7769580354, 0.000108716831101108, ]
  - [233700, -49286.117274503, 757.913363696433, -48528.2039108066, 502.741400138318, 52.5365, 52.5365, 52.5365, 145005.144253002, -275.974510347391, 182.187157021084, -63.3428036209168, -946.767884442341, -50007.2717582816, 0.000100837108331576, ]
  - [233800, -49276.4317731406, 748.780142324964, -48527.6516308156, 496.683123928922, 52.5365, 52.5365, 52.5365, 145005.144253002, 450.462861697923, 826.69374763979, 14.8647189355039, 509.830118518479, -50015.8346213872, 9.34104802368709e-05, ]
  - [233900, -49284.9458871495, 758.726293542484, -48526.2195936071, 503.280635239049, 52.5365, 52.5365, 52.5365, 145005.144253002, -280.585844367511, -250.972140738841, -181.228677342371, -409.556715021323, -50015.6005918323, 8.64180886124633e-05, ]
  - [234000, -49280.2497961613, 747.297936508402, -48532.9518596529, 495.699942653588, 52.5365, 52.5365, 52.5365, 145005.144253002, 160.118201405254, 18.6651669790184, -30.5079637649466, 492.197401001689, -50022.0766363874, 7.98415319347196e-05, ]
  - [234100, -49289.6611231088, 754.806536341187, -48534.8545867676, 500.680569957219, 52.5365, 52.5365, 52.5365, 145005.144253002, -963.326224092028, -844.943123831689, -1303.72702157582, -741.308526868577, -50022.0124923802, 7.36628641684439e-05, ]
  - [234200, -49283.9819871042, 750.831048711117, -48533.150938393, 498.043537397684, 52.5365, 52.5365, 52.5365, 145005.144253002, -291.883308216905, -277.724707887887, -463.603190710794, -134.322026052036, -50020.644273825, 6.78645934153684e-05, ]
  - [234300, -49291.2365562233, 755.829939014237, -48535.406617209, 501.359416534412, 52.5365, 52.5365, 52.5365, 145005.144253002, -1431.98247706072, -1249.56930213632, -1468.26506123928, -1578.11306780655, -50026.7061535316, 6.24296804015905e-05, ]
  - [234400, -49292.2465627482, 750.61647086472, -48541.6300918835, 497.901202967255, 52.5365, 52.5365, 52.5365, 145005.144253002, -1278.83263087376, -1019.01552107481, -1119.16900418636, -1698.31336736011, -50013.2829919419, 5.73415368019447e-05, ]
  - [234500, -49286.469127629, 754.89909034535, -48531.5700372837, 500.741963161073, 52.5365, 52.5365, 52.5365, 145005.144253002, -633.189536933114, -424.902243602567, -785.39488172205, -689.271485474721, -50010.8869025381, 5.25840233992875e-05, ]
  - [234600, -49288.4439960261, 760.693480302108, -48527.750515724, 504.585515550228, 52.5365, 52.5365, 52.5365, 145005.144253002, -311.477763151824, -349.787434569649, -365.583095937576, -219.062758948247, -50011.5862184689, 4.81414480766631e-05, ]
  - [234700, -49280.6875837543, 757.463468675739, -48523.2241150786, 502.44297440333, 52.5365, 52.5365, 52.5365, 145005.144253002, 231.137566318723, 159.314744633197, 299.936141821728, 234.161812501243, -50010.2792638387, 4.39985636403036e-05, ]
  - [234800, -49279.0443418393, 761.800160715434, -48517.2441811239, 505.319602171669, 52.5365, 52.5365, 52.5365, 145005.144253002, 615.808028621661, 719.399664523204, 405.607838316505, 722.416583025276, -50018.6215962885, 4.01405654714093e-05, ]
  - [234900, -49287.0912222204, 760.459307615454, -48526.631914605, 504.430183410696, 52.5365, 52.5365, 52.5365, 145005.144253002, -533.234845114234, -454.674178234661, -674.919433427492, -470.110923680545, -50019.3822159426, 3.65530890046418e-05, ]
  - [235000, -49289.6215894411, 758.234500179781, -48531.3870892613, 502.954417368265, 52.5365, 52.5365, 52.5365, 145005.144253002, -646.407350201069, -878.726619384509, -324.294486212076, -736.200945006619, -50024.2779011244, 3.32222070312498e-05, ]
  - [235100, -49280.9972754089, 748.125813314868, -48532.871462094, 496.249092417613, 52.5365, 52.5365, 52.5365, 145005.144253002, 215.322045450522, 31.5703916908634, 386.716935820751, 227.678808839955, -50020.8411563409, 3.01344268247407e-05, ]
  - [235200, -49278.5670159512, 755.178302591086, -48523.3887133601, 500.927171078074, 52.5365, 52.5365, 52.5365, 145005.144253002, 563.785325047319, 340.790268847053, 677.102180654615, 673.463525640286, -50038.4359630227, 2.72766870869938e-05, ]
  - [235300, -49280.3761165425, 744.782020092446, -48535.5940964501, 494.031077315973, 52.5365, 52.5365, 52.5365, 145005.144253002, 332.647145586888, 224.986197717971, 500.046198979303, 272.909040063394, -50022.0173466872, 2.46363547127045e-05, ]
  - [235400, -49288.6683830224, 751.034160285401, -48537.634222737, 498.178265985582, 52.5365, 52.5365, 52.5365, 145005.144253002, -616.121814881921, -441.573612079169, -519.409537093851, -887.382295472744, -50010.2735892111, 2.22012213700348e-05, ]
  - [235500, -49284.3575077434, 747.800242029483, -48536.5572657139, 496.033133481276, 52.5365, 52.5365, 52.5365, 145005.144253002, -453.572714409402, -370.5238120885, -609.371754777132, -380.822576362577, -50009.2692664062, 1.99594998953343e-05, ]
  - [235600, -49290.3906422401, 746.544282899303, -48543.8463593408, 495.20002684684, 52.5365, 52.5365, 52.5365, 145005.144253002, -793.631957441568, -815.165249741682, -832.855454787777, -732.875167795248, -50014.9518417253, 1.78998204997852e-05, ]
  - [235700, -49286.7443454239, 755.069167275197, -48531.6751781487, 500.854779108038, 52.5365, 52.5365, 52.5365, 145005.144253002, -120.461874601229, 108.669282100095, -122.325990122409, -347.728915781372, -50008.8316145754, 1.6011226785813e-05, ]
  - [235800, -49284.9227169217, 758.723209091758, -48526.19950783, 503.278589251802, 52.5365, 52.5365, 52.5365, 145005.144253002, -400.076124436322, -334.543185745646, -431.69533014637, -433.989857416946, -49999.2328219462, 1.42831715710918e-05, ]
  - [235900, -49277.0782395386, 747.705751310862, -48529.3724882277, 495.970455610091, 52.5365, 52.5365, 52.5365, 145005.144253002, 569.69873917627, 585.18542483589, 625.885042340534, 498.025750352386, -50015.0069453409, 1.27055125179639e-05, ]
  - [236000, -49284.3487918957, 759.708757836512, -48524.6400340592, 503.932326446018, 52.5365, 52.5365, 52.5365, 145005.144253002, -143.631921723846, 22.1737258510206, -62.8693650784531, -390.200125944105, -50032.6629363332, 1.12685075660799e-05, ]
  - [236100, -49283.6667697951, 746.192171824517, -48537.4745979705, 494.966463456588, 52.5365, 52.5365, 52.5365, 145005.144253002, -317.444506568534, -231.029065227317, -563.46154587464, -157.842908603648, -50027.8448895614, 9.96281016605479e-06, ]
  - [236200, -49290.1634997428, 757.503146670145, -48532.6603530726, 502.469293731393, 52.5365, 52.5365, 52.5365, 145005.144253002, -623.180475200311, -634.290164280252, -494.856006325262, -740.395254995418, -50014.8467217663, 8.77946431192305e-06, ]
  - [236300, -49284.1761950867, 740.818990273052, -48543.3572048137, 491.402308309348, 52.5365, 52.5365, 52.5365, 145005.144253002, -175.788211292577, -174.151956518829, -78.9388484889142, -274.273828869989, -50016.1012960211, 7.70989937016554e-06, ]
  - [236400, -49287.1550332399, 753.806468750402, -48533.3485644895, 500.017202077845, 52.5365, 52.5365, 52.5365, 145005.144253002, -376.979317280122, -411.972551220218, -498.520475889007, -220.444924731143, -50021.2002423732, 6.74592470306788e-06, ]
  - [236500, -49283.3400201258, 756.946115648326, -48526.3939044775, 502.099802217924, 52.5365, 52.5365, 52.5365, 145005.144253002, -94.6636583256904, -188.29844194956, -186.007723554511, 90.315190527001, -50028.7828930291, 5.87972408415909e-06, ]
  - [236600, -49273.9775055429, 747.290379065495, -48526.6871264774, 495.694929627549, 52.5365, 52.5365, 52.5365, 145005.144253002, 1220.05819225065, 1304.55890597255, 1276.52718645028, 1079.08848432912, -50021.8199026628, 5.10384990346715e-06, ]
  - [236700, -49282.6846438011, 757.417175390354, -48525.2674684107, 502.412267000312, 52.5365, 52.5365, 52.5365, 145005.144253002, -79.6304638103949, -138.916190502695, 267.161112878954, -367.136313807442, -50041.312927316, 4.41121716031669e-06, ]
  - [236800, -49276.5035134683, 755.213399950896, -48521.2901135175, 500.950451965649, 52.5365, 52.5365, 52.5365, 145005.144253002, 854.121194246618, 879.754232377604, 860.890145420408, 821.719204941843, -50034.13020818, 3.79509724138197e-06, ]
  - [236900, -49276.9662074722, 751.092227380569, -48525.8739800916, 498.216783227954, 52.5365, 52.5365, 52.5365, 145005.144253002, 660.227043571201, 618.140110545244, 463.233561922613, 899.307458245743, -50014.4723853117, 3.24911148169665e-06, ]
  - [237000, -49290.144038576, 757.694778883777, -48532.4492596922, 502.59640779483, 52.5365, 52.5365, 52.5365, 145005.144253002, -714.751296898802, -434.904803230327, -662.96079149061, -1046.38829597547, -50012.8551152917, 2.76722450630996e-06, ]
  - [237100, -49284.4986101124, 747.381340629447, -48537.117269483, 495.755266529113, 52.5365, 52.5365, 52.5365, 145005.144253002, -43.9179864438022, -59.4130857546817, 120.523447196309, -192.864320773032, -50021.5523996472, 2.34373735026696e-06, ]
  - [237200, -49283.506173287, 753.731313875328, -48529.7748594117, 499.967350117276, 52.5365, 52.5365, 52.5365, 145005.144253002, -36.6903191360007, -196.996169396717, 99.3830335463501, -12.4578215576356, -50025.3922488318, 1.97328035457889e-06, ]
  - [237300, -49279.1454898744, 744.69710647873, -48534.4483833957, 493.974752159173, 52.5365, 52.5365, 52.5365, 145005.144253002, 390.803835422953, 356.383953785069, 544.238085673115, 271.789466810672, -50028.0442095358, 1.65080583583743e-06, ]
  - [237400, -49277.6162224593, 759.085603594366, -48518.5306188649, 503.518973876708, 52.5365, 52.5365, 52.5365, 145005.144253002, 967.800348231651, 809.13888650936, 899.021436122119, 1195.24072206347, -50021.4037005147, 1.37158052711493e-06, ]
  - [237500, -49283.7018254675, 758.975780382521, -48524.726045085, 503.446125609432, 52.5365, 52.5365, 52.5365, 145005.144253002, 14.5506334106752, 183.110656851453, -288.723671987812, 149.264915368385, -50024.8499609681, 1.13117778778074e-06, ]
  - [237600, -49282.5068701206, 753.574208999822, -48528.9326611208, 499.863138832895, 52.5365, 52.5365, 52.5365, 145005.144253002, 38.4097129157838, -58.3750995831894, 231.143177633129, -57.5389393025884, -50021.3796407604, 9.25469579851505e-07, ]
  - [237700, -49285.4371659826, 751.109044039592, -48534.328121943, 498.227938105421, 52.5365, 52.5365, 52.5365, 145005.144253002, -395.456911264143, -478.036911404589, -324.921064937215, -383.412757450624, -50015.9814462462, 7.50618208481688e-07, ]
  - [237800, -49278.541085357, 741.266457183096, -48537.2746281739, 491.699123422587, 52.5365, 52.5365, 52.5365, 145005.144253002, 476.73467841244, 475.533982460943, 666.869673759862, 287.800379016513, -50012.0466433267, 6.03067824188189e-07, ]
  - [237900, -49292.5876087812, 752.311087717691, -48540.2765210635, 499.025281378019, 52.5365, 52.5365, 52.5365, 145005.144253002, -875.180558500979, -1054.10790896463, -719.350984622215, -852.082781916092, -50012.7325683551, 4.79535684391034e-07, ]
  - [238000, -49284.420169412, 737.244260110131, -48547.1759093019, 489.031107413168, 52.5365, 52.5365, 52.5365, 145005.144253002, -388.508500671493, -434.047661653346, -338.174588389121, -393.30325197201, -50016.4325029242, 3.77003171839991e-07, ]
  - [238100, -49292.1694945897, 752.78034808046, -48539.3891465093, 499.336552590678, 52.5365, 52.5365, 52.5365, 145005.144253002, -1151.98142408072, -1357.08760921894, -981.100420332329, -1117.75624269088, -50009.5745054852, 2.92706567484834e-07, ]
  - [238200, -49282.4887758621, 753.181779944118, -48529.306995918, 499.602831596778, 52.5365, 52.5365, 52.5365, 145005.144253002, 308.950533323006, 591.939725020348, 75.6730864355196, 259.238788513153, -50020.5059742454, 2.24127575334843e-07, ]
  - [238300, -49281.2238855805, 765.535024354998, -48515.6888612255, 507.797023293158, 52.5365, 52.5365, 52.5365, 145005.144253002, 486.549009717683, 711.768569085771, 36.9709540939276, 710.907505973352, -50018.5291028655, 1.68983596840973e-07, ]
  - [238400, -49286.2336147689, 750.314262360515, -48535.9193524084, 497.700741102067, 52.5365, 52.5365, 52.5365, 145005.144253002, -278.779368555508, 155.74897578846, -501.461288106493, -490.625793348493, -50032.3084897596, 1.25217752321901e-07, ]
  - [238500, -49285.2483790106, 753.42862884901, -48531.8197501616, 499.766572163989, 52.5365, 52.5365, 52.5365, 145005.144253002, -255.208889471038, -109.91189120034, -378.166698508107, -277.548078704667, -50047.2092957668, 9.09886469429854e-08, ]
  - [238600, -49286.9016967216, 764.57456529697, -48522.3271314246, 507.159928666335, 52.5365, 52.5365, 52.5365, 145005.144253002, -377.842563708208, -341.53094931273, -280.172661564452, -511.824080247443, -50053.2245284479, 6.46598787448784e-08, ]
  - [238700, -49282.5048232095, 757.214472836032, -48525.2903503734, 502.277809724781, 52.5365, 52.5365, 52.5365, 145005.144253002, 368.248888162614, 386.816975143147, 468.391579477339, 249.538109867359, -50044.5630062355, 4.47892862063161e-08, ]
  - [238800, -49284.699448936, 762.430908550656, -48522.2685403854, 505.73799174626, 52.5365, 52.5365, 52.5365, 145005.144253002, -311.117025001814, -415.978331960909, -8.22256042939348, -509.15018261514, -50042.9208699148, 3.01179328132691e-08, ]
  - [238900, -49288.8598390557, 762.92502204169, -48525.934817014, 506.065748611634, 52.5365, 52.5365, 52.5365, 145005.144253002, -749.805731313626, -764.869782622312, -898.382126632615, -586.16528468595, -50038.1753313549, 1.95588260943479e-08, ]
  - [239000, -49286.3059794842, 763.702656918905, -48522.6033225653, 506.581571746168, 52.5365, 52.5365, 52.5365, 145005.144253002, -236.467912309401, -407.194025244476, -286.012128468482, -16.19758321524, -50010.9130505856, 1.21853685699994e-08, ]
  - [239100, -49284.7832250134, 758.772822428915, -48526.0104025845, 503.31149892167, 52.5365, 52.5365, 52.5365, 145005.144253002, -188.246703919434, -311.219412184711, -460.890243410998, 207.369543837412, -50013.2758786928, 7.21953805066191e-09, ]
  - [239200, -49293.804048981, 754.469262375915, -48539.3347866051, 500.456848363626, 52.5365, 52.5365, 52.5365, 145005.144253002, -1760.57335131299, -1717.46942607936, -1707.83206459817, -1856.41856326144, -50015.3326744524, 4.01979470665194e-09, ]
  - [239300, -49292.711873634, 752.556799507975, -48540.155074126, 499.188267670905, 52.5365, 52.5365, 52.5365, 145005.144253002, -1072.44531289757, -783.453013799797, -1179.01324697706, -1254.86967791586, -50032.8062553585, 2.06871232013228e-09, ]
  - [239400, -49285.4109876957, 758.847787030539, -48526.5632006652, 503.361224669475, 52.5365, 52.5365, 52.5365, 145005.144253002, -232.504008566279, -538.660408065513, 11.2662368629533, -170.117854496278, -50027.015796395, 9.60331117066315e-10, ]
  - [239500, -49279.5144244358, 752.413728872543, -48527.1006955633, 499.093365621382, 52.5365, 52.5365, 52.5365, 145005.144253002, 352.265153704615, 79.092370758445, 275.497657878302, 702.205432477097, -50028.5054547696, 3.87229564589803e-10, ]
  - [239600, -49277.9433182506, 752.982846809338, -48524.9604714412, 499.470874664095, 52.5365, 52.5365, 52.5365, 145005.144253002, 443.568674952096, 418.973780977334, 146.472792346188, 765.259451532763, -50031.6403949579, 1.27312506734493e-10, ]
  - [239700, -49283.6255662144, 753.405418949852, -48530.2201472645, 499.751176503009, 52.5365, 52.5365, 52.5365, 145005.144253002, -102.928572559922, -415.199903489799, 152.01977982671, -45.6055940166748, -50033.8992295361, 3.03129989146573e-11, ]
  - [239800, -49290.7108432176, 753.870817777792, -48536.8400254398, 500.059886270627, 52.5365, 52.5365, 52.5365, 145005.144253002, -718.393917600675, -951.86510461506, -496.098515074498, -707.218133112467, -50037.4953319131, 4.00518903939475e-12, ]
  - [239900, -49289.7592797997, 753.654592240575, -48536.1046875591, 499.916458888905, 52.5365, 52.5365, 52.5365, 145005.144253002, -812.160798659955, -993.775129926717, -596.619892258765, -846.087373794385, -50032.3077166981, 1.25580539685001e-13, ]
  - [240000, -49278.1991130047, 753.628638220308, -48524.5704747844, 499.899242989156, 52.5365, 52.5365, 52.5365, 145005.144253002, 795.844505340627, 335.999484490234, 1207.38744048154, 844.146591050107, -50008.2411949691, 0, ]
...
Loop time of 262.056 on 64 procs for 100000 steps with 11664 atoms

Performance: 32.970 ns/day, 0.728 hours/ns, 381.598 timesteps/s, 4.451 Matom-step/s
41.0% CPU use with 64 MPI tasks x 1 OpenMP threads

MPI task timing breakdown:
Section |  min time  |  avg time  |  max time  |%varavg| %total
---------------------------------------------------------------
Pair    | 104.88     | 107.56     | 110.39     |  11.3 | 41.04
Neigh   | 0          | 0          | 0          |   0.0 |  0.00
Comm    | 64.37      | 67.799     | 71.014     |  15.6 | 25.87
Output  | 0.60231    | 0.65566    | 0.67815    |   1.3 |  0.25
Modify  | 49.365     | 51.434     | 81.635     |  54.0 | 19.63
Other   |            | 34.61      |            |       | 13.21

Nlocal:         182.25 ave         196 max         168 min
Histogram: 1 2 5 13 5 19 9 5 3 2
Nghost:        1275.75 ave        1290 max        1262 min
Histogram: 2 3 5 9 13 11 13 5 2 1
Neighs:        7619.39 ave        8248 max        6917 min
Histogram: 1 2 5 4 17 14 10 5 3 3

Total # of neighbors = 487641
Ave neighs/atom = 41.807356
Neighbor list builds = 0
Dangerous builds = 0
#------------------------------------------------------------------------------#
Total wall time: 0:06:56
