LAMMPS (2 Aug 2023)
OMP_NUM_THREADS environment is not set. Defaulting to 1 thread. (src/comm.cpp:98)
  using 1 OpenMP thread(s) per MPI task
#--------------------------- Simulation variables -----------------------------#
# Initalizes the random number generator.
variable RND equal round(random(0,999,${RANDOM}))
variable RND equal round(random(0,999,1))

# Simulation control parameters.
variable t_eq equal 20000 # Equilibration time.
variable t equal 100000 # Switching time.

#---------------------------- Atomic setup ------------------------------------#
units            metal
# Create atoms.
lattice          bcc ${a}
lattice          bcc 2.9036666666666666
Lattice spacing in x,y,z = 2.9036667 2.9036667 2.9036667
region           sim_box block 0 18 0 18 0 18
create_box       1 sim_box
Created orthogonal box = (0 0 0) to (52.266 52.266 52.266)
  4 by 4 by 4 MPI processor grid
create_atoms     1 box
Created 11664 atoms
  using lattice units in orthogonal box = (0 0 0) to (52.266 52.266 52.266)
  create_atoms CPU = 0.002 seconds

# Define interatomic potential.
pair_style       eam
pair_coeff       * * ../Fe.eam
#----------------------------- Run simulation ---------------------------------#
# Initial temperature to accelerate equilibration.
velocity all create ${T} ${RND} mom yes rot yes dist gaussian
velocity all create 300 ${RND} mom yes rot yes dist gaussian
velocity all create 300 80 mom yes rot yes dist gaussian

# Integrator, Frenkel-Ladd modifier, and thermostat.
fix fe all nve
fix fti all ti/spring ${k} ${t} ${t_eq} function 2
fix fti all ti/spring 5.14491547587616 ${t} ${t_eq} function 2
fix fti all ti/spring 5.14491547587616 100000 ${t_eq} function 2
fix fti all ti/spring 5.14491547587616 100000 20000 function 2
fix ft all langevin ${T} ${T} 0.1 ${RND} zero yes
fix ft all langevin 300 ${T} 0.1 ${RND} zero yes
fix ft all langevin 300 300 0.1 ${RND} zero yes
fix ft all langevin 300 300 0.1 178 zero yes
compute tcom all temp/com
fix_modify ft temp tcom

# Setup thermo output.
variable dE equal pe-f_fti
variable lambda equal f_fti[1]

thermo_style custom step pe ke etotal temp lx ly lz vol press pxx pyy pzz v_dE v_lambda
thermo 100
thermo_modify line yaml
thermo_modify flush yes

# Forward integration.
run ${t_eq}
run 20000

CITE-CITE-CITE-CITE-CITE-CITE-CITE-CITE-CITE-CITE-CITE-CITE-CITE

Your simulation uses code contributions which should be cited:

- ti/spring command: doi:10.1016/j.commatsci.2015.10.050

@article{freitas2016,
  author={Freitas, Rodrigo and Asta, Mark and de Koning, Maurice},
  title={Nonequilibrium Free-Energy Calculation of Solids Using {LAMMPS}},
  journal={Computational Materials Science},
  volume={112},
  pages={333--341},
  year={2016},
  publisher={Elsevier}
}

CITE-CITE-CITE-CITE-CITE-CITE-CITE-CITE-CITE-CITE-CITE-CITE-CITE

Neighbor list info ...
  update: every = 1 steps, delay = 0 steps, check = yes
  max neighbors/atom: 2000, page size: 100000
  master list distance cutoff = 6.409104
  ghost atom cutoff = 6.409104
  binsize = 3.204552, bins = 17 17 17
  1 neighbor lists, perpetual/occasional/extra = 1 0 0
  (1) pair eam, perpetual
      attributes: half, newton on
      pair build: half/bin/atomonly/newton
      stencil: half/bin/3d
      bin: standard
Per MPI rank memory allocation (min/avg/max) = 3.736 | 3.736 | 3.736 Mbytes
---
keywords: ['Step', 'PotEng', 'KinEng', 'TotEng', 'Temp', 'Lx', 'Ly', 'Lz', 'Volume', 'Press', 'Pxx', 'Pyy', 'Pzz', 'v_dE', 'v_lambda', ]
data:
  - [0, -49961.9278650686, 452.2683213405, -49509.6595437281, 300, 52.266, 52.266, 52.266, 142776.848757096, -50841.3418746012, -50804.7395087737, -50864.6412767357, -50854.6448382942, -49961.9278650686, 0, ]
  - [100, -49652.1222842797, 376.950791160727, -49275.171493119, 250.040146550701, 52.266, 52.266, 52.266, 142776.848757096, -7800.58730769964, -8125.16099443928, -7371.98529026095, -7904.61563839871, -49652.1222842797, 0, ]
  - [200, -49618.3490363262, 422.890876706395, -49195.4581596198, 280.513263975444, 52.266, 52.266, 52.266, 142776.848757096, -2850.1093606014, -2831.26089557962, -3009.00815581366, -2710.05903041091, -49618.3490363262, 0, ]
  - [300, -49601.1988829014, 443.716784483988, -49157.4820984174, 294.327568534206, 52.266, 52.266, 52.266, 142776.848757096, -317.918497008373, -427.66858883944, -242.002022365395, -284.084879820283, -49601.1988829014, 0, ]
  - [400, -49598.0438258798, 451.896837400395, -49146.1469884794, 299.753586141737, 52.266, 52.266, 52.266, 142776.848757096, 12.692360292318, -68.7469462188705, 144.096913292594, -37.2728861967704, -49598.0438258798, 0, ]
  - [500, -49598.9418890095, 446.993888143601, -49151.9480008659, 296.501346911984, 52.266, 52.266, 52.266, 142776.848757096, -67.8071087949266, 147.878418193358, -90.3242146629502, -260.975529915188, -49598.9418890095, 0, ]
  - [600, -49591.9595455301, 452.506239502449, -49139.4533060277, 300.157816599608, 52.266, 52.266, 52.266, 142776.848757096, 685.828873373222, 809.21458790542, 603.592613729939, 644.679418484308, -49591.9595455301, 0, ]
  - [700, -49595.591072469, 450.116256298081, -49145.474816171, 298.572485663351, 52.266, 52.266, 52.266, 142776.848757096, 401.002723097378, 452.938258551874, 327.501786725605, 422.568124014653, -49595.591072469, 0, ]
  - [800, -49592.451913736, 447.733914674079, -49144.7179990619, 296.992223563449, 52.266, 52.266, 52.266, 142776.848757096, 697.240119285436, 670.404865878194, 606.894741436229, 814.420750541886, -49592.451913736, 0, ]
  - [900, -49592.6384193327, 448.510457827446, -49144.1279615052, 297.507322532396, 52.266, 52.266, 52.266, 142776.848757096, 777.817560209769, 675.736260347788, 706.921922447756, 950.794497833762, -49592.6384193327, 0, ]
  - [1000, -49597.1358079433, 458.777496739602, -49138.3583112037, 304.317686045184, 52.266, 52.266, 52.266, 142776.848757096, 233.912603768405, 227.798953082119, 175.88124284531, 298.057615377783, -49597.1358079433, 0, ]
  - [1100, -49596.1986092318, 457.924138453546, -49138.2744707783, 303.751633828531, 52.266, 52.266, 52.266, 142776.848757096, 303.815116738155, 291.338872517133, 476.200367141543, 143.906110555786, -49596.1986092318, 0, ]
  - [1200, -49594.0149271477, 448.645113481074, -49145.3698136666, 297.596642730567, 52.266, 52.266, 52.266, 142776.848757096, 446.324460404564, 325.954313814334, 598.740715524044, 414.278351875312, -49594.0149271477, 0, ]
  - [1300, -49593.5836895149, 456.770764138305, -49136.8129253766, 302.986574065895, 52.266, 52.266, 52.266, 142776.848757096, 643.130591634312, 603.003048703957, 533.920086500249, 792.468639698731, -49593.5836895149, 0, ]
  - [1400, -49601.3367724055, 448.85700958016, -49152.4797628254, 297.737198296205, 52.266, 52.266, 52.266, 142776.848757096, -666.771205378681, -749.845916596195, -515.524532153485, -734.943167386362, -49601.3367724055, 0, ]
  - [1500, -49598.5855892389, 447.582528657728, -49151.0030605811, 296.891805730136, 52.266, 52.266, 52.266, 142776.848757096, -227.177091912298, -184.576422769671, -269.343317874136, -227.611535093084, -49598.5855892389, 0, ]
  - [1600, -49601.7869633236, 451.484260242564, -49150.302703081, 299.47991420517, 52.266, 52.266, 52.266, 142776.848757096, -294.673259787147, -294.071114655771, -527.304536047082, -62.6441286585893, -49601.7869633236, 0, ]
  - [1700, -49599.92962914, 452.34928458926, -49147.5803445507, 300.053704788688, 52.266, 52.266, 52.266, 142776.848757096, -106.132062219311, -331.980648205971, -24.6695070456971, 38.2539685937345, -49599.92962914, 0, ]
  - [1800, -49603.3789020527, 452.439958616372, -49150.9389434363, 300.113850960441, 52.266, 52.266, 52.266, 142776.848757096, -596.148591453913, -508.353712347051, -746.037849174246, -534.05421284044, -49603.3789020527, 0, ]
  - [1900, -49597.3507433949, 449.791240111849, -49147.559503283, 298.356894937075, 52.266, 52.266, 52.266, 142776.848757096, 59.4234723366104, -29.5460304984492, 84.0026875981974, 123.813759910083, -49597.3507433949, 0, ]
  - [2000, -49599.3739032188, 452.221976090846, -49147.151927128, 299.969258127885, 52.266, 52.266, 52.266, 142776.848757096, -211.915284390179, -145.340883131655, -432.211516979949, -58.1934530589363, -49599.3739032188, 0, ]
  - [2100, -49602.3128561286, 456.395355047839, -49145.9175010808, 302.737556564943, 52.266, 52.266, 52.266, 142776.848757096, -642.771754898812, -637.251330207044, -721.779400954066, -569.284533535326, -49602.3128561286, 0, ]
  - [2200, -49600.3017908668, 450.036635500322, -49150.2651553665, 298.519671353348, 52.266, 52.266, 52.266, 142776.848757096, -155.257841019058, -247.040543964089, 19.1147776116133, -237.847756704698, -49600.3017908668, 0, ]
  - [2300, -49598.047246725, 451.509816194711, -49146.5374305303, 299.496866057162, 52.266, 52.266, 52.266, 142776.848757096, 43.9486895432895, 279.821951562908, -73.4889395584973, -74.4869433745418, -49598.047246725, 0, ]
  - [2400, -49602.3051824313, 447.158190506922, -49155.1469919244, 296.610332455898, 52.266, 52.266, 52.266, 142776.848757096, -558.044674470423, -837.040700326224, -395.516538031656, -441.576785053393, -49602.3051824313, 0, ]
  - [2500, -49597.0605559348, 454.802189599439, -49142.2583663354, 301.680773208764, 52.266, 52.266, 52.266, 142776.848757096, 268.808584778584, 66.2772299475122, 250.521803350161, 489.626721038078, -49597.0605559348, 0, ]
  - [2600, -49599.8380363457, 456.053077419767, -49143.7849589259, 302.510515926507, 52.266, 52.266, 52.266, 142776.848757096, -119.256739368873, -278.540728511851, -184.625382268774, 105.395892674006, -49599.8380363457, 0, ]
  - [2700, -49598.6330422552, 450.505841275715, -49148.1272009795, 298.830906356942, 52.266, 52.266, 52.266, 142776.848757096, -213.623038019785, -127.291817311172, -306.015575949622, -207.561720798561, -49598.6330422552, 0, ]
  - [2800, -49596.999098377, 449.503272347167, -49147.4958260298, 298.165879282588, 52.266, 52.266, 52.266, 142776.848757096, -51.7128310057415, 117.792900483953, -195.62251384236, -77.3088796588188, -49596.999098377, 0, ]
  - [2900, -49599.3974113232, 449.362985263917, -49150.0344260593, 298.072823627373, 52.266, 52.266, 52.266, 142776.848757096, -352.627109366188, -333.397193370287, -333.356438401974, -391.127696326304, -49599.3974113232, 0, ]
  - [3000, -49595.1678064839, 447.459185325605, -49147.7086211583, 296.80998925551, 52.266, 52.266, 52.266, 142776.848757096, 179.315562361326, 120.19924922412, 268.933352705558, 148.8140851543, -49595.1678064839, 0, ]
  - [3100, -49599.0166009822, 451.199677919457, -49147.8169230627, 299.291144192097, 52.266, 52.266, 52.266, 142776.848757096, -318.111663013956, -486.310357696811, -306.802800420311, -161.221830924747, -49599.0166009822, 0, ]
  - [3200, -49599.826287165, 453.927912507789, -49145.8983746572, 301.10084506629, 52.266, 52.266, 52.266, 142776.848757096, -323.02721312199, -486.17269509226, -92.9340217804091, -389.9749224933, -49599.826287165, 0, ]
  - [3300, -49600.493722348, 453.338474629678, -49147.1552477184, 300.709857338232, 52.266, 52.266, 52.266, 142776.848757096, -424.644612104495, -434.766652401288, -399.968021131327, -439.199162780869, -49600.493722348, 0, ]
  - [3400, -49594.1753190954, 455.373552060277, -49138.8017670351, 302.059771095999, 52.266, 52.266, 52.266, 142776.848757096, 747.303872360413, 755.359637557295, 784.609897984567, 701.942081539377, -49594.1753190954, 0, ]
  - [3500, -49594.750432971, 457.325141051456, -49137.4252919196, 303.35430504792, 52.266, 52.266, 52.266, 142776.848757096, 700.704481889966, 495.723183949302, 711.625209972809, 894.765051747787, -49594.750432971, 0, ]
  - [3600, -49597.3390896066, 453.906651532212, -49143.4324380744, 301.086742171233, 52.266, 52.266, 52.266, 142776.848757096, 133.837712173097, 106.507797583898, 187.558362965744, 107.446975969645, -49597.3390896066, 0, ]
  - [3700, -49596.0768085733, 451.782240608423, -49144.2945679649, 299.677571448756, 52.266, 52.266, 52.266, 142776.848757096, 389.119279411765, 318.883043009495, 367.848988689008, 480.625806536791, -49596.0768085733, 0, ]
  - [3800, -49594.6161121992, 446.925420793452, -49147.6906914057, 296.45593094081, 52.266, 52.266, 52.266, 142776.848757096, 381.28174828701, 451.882614588998, 314.601200266363, 377.361430005666, -49594.6161121992, 0, ]
  - [3900, -49597.0793227703, 451.715149598104, -49145.3641731722, 299.63306843551, 52.266, 52.266, 52.266, 142776.848757096, -12.0283523704199, -14.1437129158324, -72.5327610489399, 50.5914168535145, -49597.0793227703, 0, ]
  - [4000, -49598.0856979346, 456.949617715731, -49141.1360802189, 303.105211765455, 52.266, 52.266, 52.266, 142776.848757096, -13.364430150013, -88.0887053453684, -100.394543695767, 148.389958591099, -49598.0856979346, 0, ]
  - [4100, -49599.2382758112, 451.592069407693, -49147.6462064035, 299.551426508846, 52.266, 52.266, 52.266, 142776.848757096, -209.327805075772, -424.189122832399, 4.68561667134021, -208.479909066256, -49599.2382758112, 0, ]
  - [4200, -49596.6025660419, 452.382617396074, -49144.2199486459, 300.075815207597, 52.266, 52.266, 52.266, 142776.848757096, 297.000310926293, 277.605621561144, 266.7860870621, 346.609224155635, -49596.6025660419, 0, ]
  - [4300, -49598.8945096499, 452.44264169339, -49146.4518679565, 300.115630707258, 52.266, 52.266, 52.266, 142776.848757096, -120.439766539136, -305.540358142888, -77.2691925473424, 21.4902510728227, -49598.8945096499, 0, ]
  - [4400, -49598.1396428272, 450.383433984487, -49147.7562088427, 298.749710779813, 52.266, 52.266, 52.266, 142776.848757096, 43.4775511972478, 59.1238970118004, 43.789393236902, 27.5193633430405, -49598.1396428272, 0, ]
  - [4500, -49598.7112911186, 452.051780922185, -49146.6595101965, 299.85636375039, 52.266, 52.266, 52.266, 142776.848757096, -85.2027910713883, 222.612629456356, -79.9243204694037, -398.296682201119, -49598.7112911186, 0, ]
  - [4600, -49597.3598691359, 452.399809444102, -49144.9600596918, 300.087219089242, 52.266, 52.266, 52.266, 142776.848757096, 86.2177614129245, -10.1839682320552, 42.9214958354758, 225.915756635354, -49597.3598691359, 0, ]
  - [4700, -49598.2231844586, 450.964391611626, -49147.258792847, 299.135073361975, 52.266, 52.266, 52.266, 142776.848757096, 106.618585940317, 171.370903439428, 178.005094257264, -29.5202398757409, -49598.2231844586, 0, ]
  - [4800, -49593.0257308859, 456.308830754909, -49136.716900131, 302.680163007504, 52.266, 52.266, 52.266, 142776.848757096, 658.497172860143, 681.485592665955, 692.595112681111, 601.410813233362, -49593.0257308859, 0, ]
  - [4900, -49598.6294132949, 454.713202452765, -49143.9162108421, 301.62174598368, 52.266, 52.266, 52.266, 142776.848757096, -208.420146068357, -247.759522787828, -145.714454857512, -231.78646055973, -49598.6294132949, 0, ]
  - [5000, -49598.2547503023, 454.547895269584, -49143.7068550327, 301.512093919597, 52.266, 52.266, 52.266, 142776.848757096, 113.600806539766, 158.168668273222, 93.7120336460513, 88.9217177000269, -49598.2547503023, 0, ]
  - [5100, -49595.052428414, 450.054447227863, -49144.9979811861, 298.531486282695, 52.266, 52.266, 52.266, 142776.848757096, 392.009985312333, 454.846640424819, 452.386003682575, 268.797311829605, -49595.052428414, 0, ]
  - [5200, -49597.2770182723, 456.933139921274, -49140.343878351, 303.094281664664, 52.266, 52.266, 52.266, 142776.848757096, 88.9825046783753, 114.72752600688, -89.0741230606776, 241.294111088924, -49597.2770182723, 0, ]
  - [5300, -49599.9732804368, 451.312894451567, -49148.6603859853, 299.366243326903, 52.266, 52.266, 52.266, 142776.848757096, -361.193894697708, -512.980190635651, -141.342347842895, -429.259145614579, -49599.9732804368, 0, ]
  - [5400, -49599.825451135, 448.16391789569, -49151.6615332393, 297.277454609703, 52.266, 52.266, 52.266, 142776.848757096, 109.691467550636, 98.6384597447579, 135.015855901767, 95.4200870053828, -49599.825451135, 0, ]
  - [5500, -49594.9501272331, 449.758116791343, -49145.1920104418, 298.334923475261, 52.266, 52.266, 52.266, 142776.848757096, 551.076113120932, 504.811939434185, 387.209009081464, 761.207390847144, -49594.9501272331, 0, ]
  - [5600, -49597.7429154478, 454.475124409005, -49143.2677910387, 301.463823330781, 52.266, 52.266, 52.266, 142776.848757096, 128.052491794824, 124.832709881265, 329.589478533942, -70.2647130307344, -49597.7429154478, 0, ]
  - [5700, -49604.5291741658, 450.522930505836, -49154.00624366, 298.8422420371, 52.266, 52.266, 52.266, 142776.848757096, -878.218002055218, -661.416602840664, -848.6540240235, -1124.58337930149, -49604.5291741658, 0, ]
  - [5800, -49601.0384245481, 449.525108542348, -49151.5133160057, 298.180363734063, 52.266, 52.266, 52.266, 142776.848757096, -308.547724033453, -491.265055687053, -8.37910663161197, -425.999009781694, -49601.0384245481, 0, ]
  - [5900, -49597.6258185576, 450.63082947468, -49146.9949890829, 298.91381390965, 52.266, 52.266, 52.266, 142776.848757096, 30.0196882845465, -21.2052669653685, -76.9189649567867, 188.183296775797, -49597.6258185576, 0, ]
  - [6000, -49597.7838959359, 453.526537929231, -49144.2573580067, 300.834604058715, 52.266, 52.266, 52.266, 142776.848757096, 163.707349728051, 89.8437259490006, 108.760050460488, 292.518272774664, -49597.7838959359, 0, ]
  - [6100, -49592.2907438878, 456.145357842197, -49136.1453860456, 302.571727657293, 52.266, 52.266, 52.266, 142776.848757096, 980.403131155032, 1065.17612286513, 888.151659182643, 987.881611417327, -49592.2907438878, 0, ]
  - [6200, -49598.5700250508, 448.440858166496, -49150.1291668843, 297.461155473375, 52.266, 52.266, 52.266, 142776.848757096, -187.492373138474, -63.3580138866007, -269.772234342364, -229.346871186456, -49598.5700250508, 0, ]
  - [6300, -49602.3169810697, 452.975768288332, -49149.3412127814, 300.469265863504, 52.266, 52.266, 52.266, 142776.848757096, -462.728489637597, -451.962930644589, -502.646289468376, -433.576248799823, -49602.3169810697, 0, ]
  - [6400, -49600.6426123156, 449.537733828297, -49151.1048784873, 298.188738377181, 52.266, 52.266, 52.266, 142776.848757096, -541.531379709145, -531.532933245594, -436.557249575429, -656.503956306408, -49600.6426123156, 0, ]
  - [6500, -49595.1819656126, 457.064177629431, -49138.1177879832, 303.181201996229, 52.266, 52.266, 52.266, 142776.848757096, 329.509856935697, 302.892095374737, 499.12309256443, 186.514382867925, -49595.1819656126, 0, ]
  - [6600, -49592.2948630259, 455.399839965046, -49136.8950230608, 302.077208469033, 52.266, 52.266, 52.266, 142776.848757096, 686.642285945077, 647.83677315651, 781.880798841819, 630.209285836901, -49592.2948630259, 0, ]
  - [6700, -49594.83508686, 455.997411188678, -49138.8376756713, 302.473591232606, 52.266, 52.266, 52.266, 142776.848757096, 245.233308802464, 351.892791083027, 252.954138329983, 130.852996994383, -49594.83508686, 0, ]
  - [6800, -49597.2880643769, 455.407094621217, -49141.8809697557, 302.082020649653, 52.266, 52.266, 52.266, 142776.848757096, -80.9883209714926, -217.371753201244, 180.754490881391, -206.347700594626, -49597.2880643769, 0, ]
  - [6900, -49594.8794916363, 457.724929439097, -49137.1545621972, 303.619493898505, 52.266, 52.266, 52.266, 142776.848757096, 354.831728132291, 307.989791411883, 337.045680324652, 419.45971266034, -49594.8794916363, 0, ]
  - [7000, -49596.8442406082, 454.726867415908, -49142.1173731923, 301.630810268639, 52.266, 52.266, 52.266, 142776.848757096, 429.076135139882, 366.35402252297, 317.848567990419, 603.02581490626, -49596.8442406082, 0, ]
  - [7100, -49598.7909263344, 457.67271836273, -49141.1182079716, 303.584861088355, 52.266, 52.266, 52.266, 142776.848757096, 149.330907009962, 338.289468147315, -80.1875166276478, 189.890769510217, -49598.7909263344, 0, ]
  - [7200, -49596.3483320291, 451.611957927123, -49144.736374102, 299.564619022112, 52.266, 52.266, 52.266, 142776.848757096, 177.214791726841, 39.2580768102595, 152.608397963714, 339.77790040655, -49596.3483320291, 0, ]
  - [7300, -49593.6994095098, 449.022891591551, -49144.6765179182, 297.847231657086, 52.266, 52.266, 52.266, 142776.848757096, 385.561244363499, 472.639749968378, 260.49116736784, 423.552815754277, -49593.6994095098, 0, ]
  - [7400, -49595.9581369, 454.809702656758, -49141.1484342433, 301.685756792821, 52.266, 52.266, 52.266, 142776.848757096, 533.358190046117, 386.048494576151, 712.917060612217, 501.109014949984, -49595.9581369, 0, ]
  - [7500, -49594.3208977122, 449.811997007478, -49144.5089007047, 298.370663464285, 52.266, 52.266, 52.266, 142776.848757096, 656.17148095488, 718.907059111943, 440.878684749286, 808.728699003412, -49594.3208977122, 0, ]
  - [7600, -49599.332829277, 452.750881520704, -49146.5819477563, 300.320093288055, 52.266, 52.266, 52.266, 142776.848757096, 27.1389106443946, 180.809656992826, -16.9248591232901, -82.4680659363507, -49599.332829277, 0, ]
  - [7700, -49599.7744823312, 457.328376138571, -49142.4461061926, 303.356450955756, 52.266, 52.266, 52.266, 142776.848757096, -356.703543944824, -360.888190210326, -381.830623825417, -327.391817798727, -49599.7744823312, 0, ]
  - [7800, -49598.0275787559, 460.589539694631, -49137.4380390612, 305.519655895509, 52.266, 52.266, 52.266, 142776.848757096, 114.022781075979, 149.341580944669, -85.8909362261173, 278.617698509384, -49598.0275787559, 0, ]
  - [7900, -49600.0779641434, 450.814035723565, -49149.2639284198, 299.035338836496, 52.266, 52.266, 52.266, 142776.848757096, -112.278924796699, 89.7315568227257, -303.79687193793, -122.771459274892, -49600.0779641434, 0, ]
  - [8000, -49596.8111843548, 452.793211200235, -49144.0179731546, 300.34817153997, 52.266, 52.266, 52.266, 142776.848757096, 38.5588494834026, 331.98154996236, -153.844533842579, -62.4604676695714, -49596.8111843548, 0, ]
  - [8100, -49598.5315085698, 453.344097233824, -49145.187411336, 300.713586941134, 52.266, 52.266, 52.266, 142776.848757096, 149.76279872149, -15.6838389391313, 285.888022188008, 179.084212915596, -49598.5315085698, 0, ]
  - [8200, -49596.6057361937, 451.942290858724, -49144.663445335, 299.783736468115, 52.266, 52.266, 52.266, 142776.848757096, 81.0066872933399, 225.128195182374, 67.8934544691899, -50.0015877715464, -49596.6057361937, 0, ]
  - [8300, -49598.180722594, 451.670310480183, -49146.5104121138, 299.603325615282, 52.266, 52.266, 52.266, 142776.848757096, 46.3957048939424, 172.164645328487, -18.995932629573, -13.9815980170853, -49598.180722594, 0, ]
  - [8400, -49597.5164551983, 454.532014305896, -49142.9844408924, 301.501559710408, 52.266, 52.266, 52.266, 142776.848757096, 32.5715939742573, 68.5768751758418, 49.7649092291029, -20.6270024821733, -49597.5164551983, 0, ]
  - [8500, -49594.4925517979, 457.248696568815, -49137.2438552291, 303.303597660933, 52.266, 52.266, 52.266, 142776.848757096, 359.462364747757, 463.094929455021, 227.459931885843, 387.832232902406, -49594.4925517979, 0, ]
  - [8600, -49595.9284401663, 449.35392974924, -49146.5745104171, 298.066816895805, 52.266, 52.266, 52.266, 142776.848757096, 311.617431966615, 404.760089569054, 269.926930575159, 260.165275755632, -49595.9284401663, 0, ]
  - [8700, -49592.1083017757, 453.562246935495, -49138.5460548402, 300.858290665479, 52.266, 52.266, 52.266, 142776.848757096, 728.091244728727, 579.110622436498, 791.354399268594, 813.808712481092, -49592.1083017757, 0, ]
  - [8800, -49594.2899957978, 456.735146226307, -49137.5548495715, 302.962947884057, 52.266, 52.266, 52.266, 142776.848757096, 543.885591342411, 558.244367402582, 660.048407234519, 413.363999390133, -49594.2899957978, 0, ]
  - [8900, -49595.0938639077, 456.912605147206, -49138.1812587605, 303.080660475804, 52.266, 52.266, 52.266, 142776.848757096, 269.095968931785, 74.5013858901571, 388.08826386366, 344.698257041537, -49595.0938639077, 0, ]
  - [9000, -49595.8438824513, 457.615549479423, -49138.2283329719, 303.546939650609, 52.266, 52.266, 52.266, 142776.848757096, 340.660446554687, 417.505683964525, 439.176418271238, 165.299237428297, -49595.8438824513, 0, ]
  - [9100, -49602.2577853182, 455.278738196324, -49146.9790471218, 301.996878875068, 52.266, 52.266, 52.266, 142776.848757096, -528.567238720362, -368.799267835387, -572.694169058365, -644.208279267332, -49602.2577853182, 0, ]
  - [9200, -49593.3321476207, 449.903525356762, -49143.4286222639, 298.431376327622, 52.266, 52.266, 52.266, 142776.848757096, 541.220095620295, 754.308783334517, 351.033208845159, 518.318294681209, -49593.3321476207, 0, ]
  - [9300, -49597.0308321251, 458.080983395679, -49138.9498487294, 303.855672693115, 52.266, 52.266, 52.266, 142776.848757096, 123.431510380151, 232.984606024608, 50.346144697671, 86.9637804181748, -49597.0308321251, 0, ]
  - [9400, -49593.9191510124, 447.950102974472, -49145.969048038, 297.135626245127, 52.266, 52.266, 52.266, 142776.848757096, 314.247276618413, 233.582620775347, 351.593794476239, 357.565414603653, -49593.9191510124, 0, ]
  - [9500, -49598.0842615358, 453.996960095935, -49144.0873014398, 301.146645922698, 52.266, 52.266, 52.266, 142776.848757096, -31.182315517429, -33.0302759888946, -248.991980004779, 188.475309441384, -49598.0842615358, 0, ]
  - [9600, -49599.6231198486, 457.368473202502, -49142.2546466461, 303.383048262292, 52.266, 52.266, 52.266, 142776.848757096, -260.235189350567, -357.919950388782, -146.981456089933, -275.804161572986, -49599.6231198486, 0, ]
  - [9700, -49595.2690585336, 446.90134120393, -49148.3677173297, 296.43995839417, 52.266, 52.266, 52.266, 142776.848757096, 302.353432196188, 222.207610429945, 249.865681726452, 434.987004432169, -49595.2690585336, 0, ]
  - [9800, -49597.6761827424, 451.027847933745, -49146.6483348087, 299.177165402778, 52.266, 52.266, 52.266, 142776.848757096, 171.927211475106, -15.3124507138898, 514.933602336757, 16.1604828024509, -49597.6761827424, 0, ]
  - [9900, -49596.0791112327, 460.544792884877, -49135.5343183479, 305.489974305416, 52.266, 52.266, 52.266, 142776.848757096, 165.521058769744, 63.1110291437976, 268.495384924333, 164.956762241104, -49596.0791112327, 0, ]
  - [10000, -49592.2412457227, 452.051617737723, -49140.189627985, 299.856255506376, 52.266, 52.266, 52.266, 142776.848757096, 558.058934888615, 492.307465006943, 497.475187610894, 684.394152048007, -49592.2412457227, 0, ]
  - [10100, -49593.0657148135, 452.587332044489, -49140.478382769, 300.211607151509, 52.266, 52.266, 52.266, 142776.848757096, 563.760297888916, 561.474602758468, 572.49655498937, 557.309735918909, -49593.0657148135, 0, ]
  - [10200, -49597.7871700247, 453.04262026489, -49144.7445497598, 300.513610320149, 52.266, 52.266, 52.266, 142776.848757096, 48.7532266457353, 34.2420272877413, -94.4755438195952, 206.493196469061, -49597.7871700247, 0, ]
  - [10300, -49599.6173858108, 456.692803997318, -49142.9245818135, 302.934861307799, 52.266, 52.266, 52.266, 142776.848757096, -116.57857628165, -259.322818848451, 103.739018349757, -194.151928346256, -49599.6173858108, 0, ]
  - [10400, -49594.5238079143, 452.710375342909, -49141.8134325714, 300.293224606865, 52.266, 52.266, 52.266, 142776.848757096, 398.805085070727, 265.413158863527, 503.451196272355, 427.550900076301, -49594.5238079143, 0, ]
  - [10500, -49593.5071198114, 454.761542182186, -49138.7455776292, 301.653810840187, 52.266, 52.266, 52.266, 142776.848757096, 684.799758997282, 714.929643860838, 623.096225834418, 716.373407296591, -49593.5071198114, 0, ]
  - [10600, -49596.0360443513, 447.7647783096, -49148.2712660417, 297.012696124138, 52.266, 52.266, 52.266, 142776.848757096, 256.395801366955, 219.114310244055, 124.774716127481, 425.29837772933, -49596.0360443513, 0, ]
  - [10700, -49601.4765081004, 450.890696945982, -49150.5858111544, 299.086189991971, 52.266, 52.266, 52.266, 142776.848757096, -350.681234932975, -422.013385973879, -391.992299917297, -238.038018907751, -49601.4765081004, 0, ]
  - [10800, -49596.7542586968, 449.783379434728, -49146.970879262, 298.351680768792, 52.266, 52.266, 52.266, 142776.848757096, 278.494098962536, 276.298905203038, 223.659277387616, 335.524114296954, -49596.7542586968, 0, ]
  - [10900, -49598.8598805686, 443.838791355522, -49155.0210892131, 294.408498503725, 52.266, 52.266, 52.266, 142776.848757096, -281.521281987405, -253.204653606812, -196.316204668787, -395.042987686618, -49598.8598805686, 0, ]
  - [11000, -49597.5559687799, 446.128323842534, -49151.4276449373, 295.927198164288, 52.266, 52.266, 52.266, 142776.848757096, -43.9196105611497, -129.553884806035, -103.706523944159, 101.501577066748, -49597.5559687799, 0, ]
  - [11100, -49599.1268986832, 446.138141515202, -49152.988757168, 295.933710452816, 52.266, 52.266, 52.266, 142776.848757096, -263.137081579077, -482.454698082169, 14.4278261321713, -321.384372787233, -49599.1268986832, 0, ]
  - [11200, -49597.5273982375, 447.441729134781, -49150.0856691027, 296.798410161861, 52.266, 52.266, 52.266, 142776.848757096, 53.3926924668391, -33.1123447973664, 141.603180383332, 51.6872418145506, -49597.5273982375, 0, ]
  - [11300, -49596.078947499, 447.412395430116, -49148.6665520689, 296.778952439567, 52.266, 52.266, 52.266, 142776.848757096, 136.014313515469, 148.652516471301, 177.87159568531, 81.5188283897951, -49596.078947499, 0, ]
  - [11400, -49593.6088836547, 454.358286345384, -49139.2505973093, 301.386321950666, 52.266, 52.266, 52.266, 142776.848757096, 658.974513062528, 721.524502169681, 781.96278038575, 473.436256632153, -49593.6088836547, 0, ]
  - [11500, -49599.192762365, 455.171016513026, -49144.021745852, 301.925424600106, 52.266, 52.266, 52.266, 142776.848757096, -73.9819582280989, 77.0103721410612, -189.287339933897, -109.668906891463, -49599.192762365, 0, ]
  - [11600, -49592.3944083014, 449.057150339122, -49143.3372579623, 297.869956273837, 52.266, 52.266, 52.266, 142776.848757096, 774.095730385468, 851.066851493289, 766.743415104756, 704.476924558359, -49592.3944083014, 0, ]
  - [11700, -49596.9191369202, 455.058567110213, -49141.86056981, 301.850834319841, 52.266, 52.266, 52.266, 142776.848757096, -9.67268847699859, 46.8254959214769, 79.1560093938124, -154.999570746285, -49596.9191369202, 0, ]
  - [11800, -49597.6592521974, 453.232385817028, -49144.4268663803, 300.639486184001, 52.266, 52.266, 52.266, 142776.848757096, 221.027594900385, 314.849603290189, 299.907582202251, 48.3255992087147, -49597.6592521974, 0, ]
  - [11900, -49597.0027837225, 450.834328152712, -49146.1684555697, 299.048799272385, 52.266, 52.266, 52.266, 142776.848757096, 417.286538029558, 179.094721638047, 428.913914883876, 643.85097756675, -49597.0027837225, 0, ]
  - [12000, -49598.0372195798, 456.213215964507, -49141.8240036153, 302.616739513602, 52.266, 52.266, 52.266, 142776.848757096, 37.1971927212285, -149.091036266576, 212.649494136637, 48.033120293626, -49598.0372195798, 0, ]
  - [12100, -49598.8310203409, 450.569721276407, -49148.2612990645, 298.873279433506, 52.266, 52.266, 52.266, 142776.848757096, -181.021044751203, -269.551521525159, -120.44779650837, -153.063816220079, -49598.8310203409, 0, ]
  - [12200, -49596.233745379, 449.538364439273, -49146.6953809397, 298.189156675974, 52.266, 52.266, 52.266, 142776.848757096, 161.505046435073, 58.985491998292, 153.12287327762, 272.406774029308, -49596.233745379, 0, ]
  - [12300, -49596.615791446, 450.277497580711, -49146.3382938653, 298.6794407219, 52.266, 52.266, 52.266, 142776.848757096, 353.329224673098, 334.46627355073, 368.211944872401, 357.309455596165, -49596.615791446, 0, ]
  - [12400, -49596.5063722245, 450.775734379242, -49145.7306378453, 299.009932672157, 52.266, 52.266, 52.266, 142776.848757096, 244.363914449144, 145.631261466702, 285.745461206408, 301.715020674325, -49596.5063722245, 0, ]
  - [12500, -49604.0522542138, 447.263004753592, -49156.7892494602, 296.679858161143, 52.266, 52.266, 52.266, 142776.848757096, -636.251069243271, -645.57055220175, -472.237079659258, -790.945575868803, -49604.0522542138, 0, ]
  - [12600, -49603.6930123684, 451.761604412359, -49151.931407956, 299.663882984349, 52.266, 52.266, 52.266, 142776.848757096, -733.651067872917, -787.313051465995, -686.573821385518, -727.066330767234, -49603.6930123684, 0, ]
  - [12700, -49597.2865159712, 451.053673862612, -49146.2328421086, 299.19429633655, 52.266, 52.266, 52.266, 142776.848757096, 115.276194927905, 176.192165525742, 400.359361361362, -230.722942103388, -49597.2865159712, 0, ]
  - [12800, -49591.9611611504, 443.766484848928, -49148.1946763014, 294.360535931609, 52.266, 52.266, 52.266, 142776.848757096, 835.292505443015, 697.018071828507, 979.369292476897, 829.490152023639, -49591.9611611504, 0, ]
  - [12900, -49596.5204773033, 450.62967664693, -49145.8908006563, 298.913049212437, 52.266, 52.266, 52.266, 142776.848757096, 121.458901502555, 188.882212998287, 69.5295682256386, 105.964923283739, -49596.5204773033, 0, ]
  - [13000, -49603.8715517666, 450.652189012514, -49153.219362754, 298.927982183323, 52.266, 52.266, 52.266, 142776.848757096, -729.072701554998, -487.460659348242, -890.870987761297, -808.88645755545, -49603.8715517666, 0, ]
  - [13100, -49595.8147411294, 446.703527649371, -49149.1112134801, 296.308744104848, 52.266, 52.266, 52.266, 142776.848757096, 390.053509669352, 161.131605616049, 544.036923426696, 464.99199996531, -49595.8147411294, 0, ]
  - [13200, -49599.1073863774, 445.410312567019, -49153.6970738104, 295.450924738778, 52.266, 52.266, 52.266, 142776.848757096, 38.7271160592121, 53.6868531000433, 42.4863023401713, 20.0081927374228, -49599.1073863774, 0, ]
  - [13300, -49599.180643404, 451.228854970389, -49147.9517884336, 299.310498002361, 52.266, 52.266, 52.266, 142776.848757096, -10.6848856714079, -87.839470501465, 198.328500791383, -142.543687304142, -49599.180643404, 0, ]
  - [13400, -49600.4392223211, 455.680709795575, -49144.7585125256, 302.263515900225, 52.266, 52.266, 52.266, 142776.848757096, -358.47210185406, -265.276123835165, -236.167780447209, -573.972401279808, -49600.4392223211, 0, ]
  - [13500, -49593.6465387577, 451.166193784718, -49142.480344973, 299.268933393888, 52.266, 52.266, 52.266, 142776.848757096, 444.883769269553, 199.44134694928, 501.241410697548, 633.968550161831, -49593.6465387577, 0, ]
  - [13600, -49601.5578023508, 456.449458747595, -49145.1083436032, 302.773444795803, 52.266, 52.266, 52.266, 142776.848757096, -282.372695224292, -192.87530981795, -169.320421512674, -484.92235434225, -49601.5578023508, 0, ]
  - [13700, -49596.9933745391, 451.040660386329, -49145.9527141528, 299.185664197838, 52.266, 52.266, 52.266, 142776.848757096, 142.821435248591, 371.900033949966, 52.9248670774103, 3.63940471839681, -49596.9933745391, 0, ]
  - [13800, -49601.7481271386, 447.532567927557, -49154.215559211, 296.858665626476, 52.266, 52.266, 52.266, 142776.848757096, -466.789281039234, -611.373107913755, -435.318934582275, -353.675800621669, -49601.7481271386, 0, ]
  - [13900, -49603.2067470111, 448.719369771668, -49154.4873772394, 297.645898639343, 52.266, 52.266, 52.266, 142776.848757096, -970.259050481242, -904.864373536618, -818.703962990293, -1187.20881491681, -49603.2067470111, 0, ]
  - [14000, -49599.9000159637, 452.708708130733, -49147.191307833, 300.292118706608, 52.266, 52.266, 52.266, 142776.848757096, -261.523430871691, -157.62361127832, -249.536771460691, -377.409909876062, -49599.9000159637, 0, ]
  - [14100, -49594.1715798932, 447.335583235847, -49146.8359966573, 296.728001140983, 52.266, 52.266, 52.266, 142776.848757096, 614.174287483241, 346.513141108392, 783.116954769076, 712.892766572257, -49594.1715798932, 0, ]
  - [14200, -49599.6819504647, 447.053986265291, -49152.6279641994, 296.541211381053, 52.266, 52.266, 52.266, 142776.848757096, -236.963456408463, -261.129480875727, -385.155251454387, -64.6056368952746, -49599.6819504647, 0, ]
  - [14300, -49602.2854440199, 452.719611916839, -49149.5658321031, 300.299351439208, 52.266, 52.266, 52.266, 142776.848757096, -602.389442852052, -590.372604295354, -644.633253022362, -572.162471238439, -49602.2854440199, 0, ]
  - [14400, -49597.1941915521, 459.214949050371, -49137.9792425017, 304.607858243939, 52.266, 52.266, 52.266, 142776.848757096, 144.864631489148, 74.0816846990455, 206.323872197622, 154.18833757078, -49597.1941915521, 0, ]
  - [14500, -49597.536102558, 458.34527256919, -49139.1908299888, 304.030981792409, 52.266, 52.266, 52.266, 142776.848757096, 115.834996710558, -83.5876671472253, 406.701662672479, 24.3909946064233, -49597.536102558, 0, ]
  - [14600, -49598.9309541148, 451.723082781437, -49147.2078713333, 299.638330698834, 52.266, 52.266, 52.266, 142776.848757096, -206.622754319285, -273.513643204453, -171.498841741011, -174.85577801239, -49598.9309541148, 0, ]
  - [14700, -49599.7064168018, 455.378555497899, -49144.3278613039, 302.063089991477, 52.266, 52.266, 52.266, 142776.848757096, -121.865753825275, -247.678479459635, -120.482520036522, 2.56373802033353, -49599.7064168018, 0, ]
  - [14800, -49599.7706347181, 452.008704555659, -49147.7619301624, 299.827790203786, 52.266, 52.266, 52.266, 142776.848757096, -322.238731411378, -471.477533674875, -247.426607229136, -247.812053330124, -49599.7706347181, 0, ]
  - [14900, -49598.6876625046, 452.705099317482, -49145.9825631871, 300.289724897614, 52.266, 52.266, 52.266, 142776.848757096, 142.688762615478, 8.61133721059698, 299.518225826431, 119.936724809408, -49598.6876625046, 0, ]
  - [15000, -49598.6526546363, 450.605729917047, -49148.0469247193, 298.897164794656, 52.266, 52.266, 52.266, 142776.848757096, 142.020328680385, 222.996132161763, 113.786575006075, 89.2782788733171, -49598.6526546363, 0, ]
  - [15100, -49604.3252095136, 447.457092586134, -49156.8681169274, 296.808601093192, 52.266, 52.266, 52.266, 142776.848757096, -688.374624016022, -524.400843382201, -778.061283757752, -762.661744908112, -49604.3252095136, 0, ]
  - [15200, -49594.9377555485, 444.377984751864, -49150.5597707966, 294.766157909148, 52.266, 52.266, 52.266, 142776.848757096, 519.07832490476, 661.885590262013, 521.993522894258, 373.355861558008, -49594.9377555485, 0, ]
  - [15300, -49602.1796487962, 449.758425426766, -49152.4212233694, 298.33512820025, 52.266, 52.266, 52.266, 142776.848757096, -558.779426785615, -184.816639075732, -718.204833141006, -773.316808140104, -49602.1796487962, 0, ]
  - [15400, -49598.1007635673, 451.794823313415, -49146.3059402538, 299.685917846944, 52.266, 52.266, 52.266, 142776.848757096, 204.567719090192, 249.646561706188, 221.754567763155, 142.302027801235, -49598.1007635673, 0, ]
  - [15500, -49596.6613680316, 454.948573134102, -49141.7127948975, 301.777872780692, 52.266, 52.266, 52.266, 142776.848757096, 301.231800041319, 254.426725540528, 306.761090213799, 342.507584369631, -49596.6613680316, 0, ]
  - [15600, -49596.8021434731, 449.664256625921, -49147.1378868472, 298.272663864543, 52.266, 52.266, 52.266, 142776.848757096, 275.904303651804, 217.836159516861, 331.734624490469, 278.142126948084, -49596.8021434731, 0, ]
  - [15700, -49595.8784427994, 449.225579244752, -49146.6528635546, 297.98167904836, 52.266, 52.266, 52.266, 142776.848757096, 204.979209593521, 295.243472266949, 42.9674001983539, 276.726756315263, -49595.8784427994, 0, ]
  - [15800, -49597.5204299666, 451.007590916641, -49146.5128390499, 299.163728456513, 52.266, 52.266, 52.266, 142776.848757096, -59.469646046078, 118.441499547292, -179.425510195293, -117.424927490233, -49597.5204299666, 0, ]
  - [15900, -49600.6977946766, 451.710880046302, -49148.9869146303, 299.630236343409, 52.266, 52.266, 52.266, 142776.848757096, -487.706419116333, -363.320297225472, -430.132337255453, -669.666622868073, -49600.6977946766, 0, ]
  - [16000, -49601.5493181669, 449.77115947466, -49151.7781586923, 298.343574987672, 52.266, 52.266, 52.266, 142776.848757096, -407.284179127237, -351.97170390165, -504.28649329875, -365.59434018131, -49601.5493181669, 0, ]
  - [16100, -49594.9051494626, 454.323627594404, -49140.5815218681, 301.363332002436, 52.266, 52.266, 52.266, 142776.848757096, 332.872230824594, 295.840483572488, 368.483080152847, 334.293128748448, -49594.9051494626, 0, ]
  - [16200, -49596.066580684, 456.864121638402, -49139.2024590456, 303.048500247119, 52.266, 52.266, 52.266, 142776.848757096, 125.189746417738, 124.014025473713, 191.754648174085, 59.8005656054143, -49596.066580684, 0, ]
  - [16300, -49596.8750791315, 453.949312064777, -49142.9257670668, 301.115039885589, 52.266, 52.266, 52.266, 142776.848757096, 156.552475730025, 296.783609140874, 230.8484569295, -57.9746388802978, -49596.8750791315, 0, ]
  - [16400, -49598.92116576, 451.979501161229, -49146.9416645987, 299.808418919272, 52.266, 52.266, 52.266, 142776.848757096, -125.725402510995, -3.26742158130919, -108.327955517173, -265.580830434502, -49598.92116576, 0, ]
  - [16500, -49601.3049474415, 452.172022091386, -49149.1329253502, 299.936122488861, 52.266, 52.266, 52.266, 142776.848757096, -303.527108917795, -165.134129204017, -216.583783955585, -528.863413593783, -49601.3049474415, 0, ]
  - [16600, -49594.6974683771, 453.361490985029, -49141.335977392, 300.725124617145, 52.266, 52.266, 52.266, 142776.848757096, 315.994457310862, 255.459512730328, 197.713391032494, 494.810468169763, -49594.6974683771, 0, ]
  - [16700, -49601.7780281466, 451.484610660779, -49150.2934174859, 299.480146645648, 52.266, 52.266, 52.266, 142776.848757096, -393.200312717289, -285.69808440425, -331.986284013941, -561.916569733676, -49601.7780281466, 0, ]
  - [16800, -49597.7257793311, 451.249868270409, -49146.4759110607, 299.324436608512, 52.266, 52.266, 52.266, 142776.848757096, 65.5685616505922, 6.72454208822976, 104.483467895983, 85.4976749675657, -49597.7257793311, 0, ]
  - [16900, -49599.1028216521, 450.041679329916, -49149.0611423222, 298.523017041752, 52.266, 52.266, 52.266, 142776.848757096, 51.6140273732357, -62.231689143169, 26.7383972271749, 190.335374035702, -49599.1028216521, 0, ]
  - [17000, -49597.1026639472, 452.194301723797, -49144.9083622235, 299.95090108247, 52.266, 52.266, 52.266, 142776.848757096, 225.070222841223, 46.7091016921767, 428.919536172265, 199.582030659226, -49597.1026639472, 0, ]
  - [17100, -49595.1771533938, 455.30932292004, -49139.8678304737, 302.017166427129, 52.266, 52.266, 52.266, 142776.848757096, 241.361466588101, 203.656342262199, 293.502774875072, 226.925282627034, -49595.1771533938, 0, ]
  - [17200, -49597.5444449295, 449.555023415174, -49147.9894215143, 298.200206958592, 52.266, 52.266, 52.266, 142776.848757096, 103.161652923221, 224.743269441559, 92.3236885132106, -7.58199918510595, -49597.5444449295, 0, ]
  - [17300, -49597.3690113839, 449.431061887427, -49147.9379494965, 298.117980420563, 52.266, 52.266, 52.266, 142776.848757096, 14.5481279493102, 39.2298755065086, -50.0409875184299, 54.4554958598532, -49597.3690113839, 0, ]
  - [17400, -49598.7717176066, 452.0048978481, -49146.7668197585, 299.825265126937, 52.266, 52.266, 52.266, 142776.848757096, 8.4472764962335, -124.721957866353, 36.2614050290406, 113.802382326013, -49598.7717176066, 0, ]
  - [17500, -49604.1911536427, 450.541550000668, -49153.6496036421, 298.854592777106, 52.266, 52.266, 52.266, 142776.848757096, -901.008017280697, -991.882897922632, -1008.10294678146, -703.038207138002, -49604.1911536427, 0, ]
  - [17600, -49605.8495768928, 452.038519738102, -49153.8110571547, 299.847567301386, 52.266, 52.266, 52.266, 142776.848757096, -1048.79888481755, -965.189846522532, -1120.50751043938, -1060.69929749074, -49605.8495768928, 0, ]
  - [17700, -49596.8702130277, 452.933802984069, -49143.9364100436, 300.441429310103, 52.266, 52.266, 52.266, 142776.848757096, 368.92922819468, 418.266891347217, 327.279489882797, 361.241303354027, -49596.8702130277, 0, ]
  - [17800, -49596.8397852739, 449.437081325194, -49147.4027039487, 298.121973252351, 52.266, 52.266, 52.266, 142776.848757096, 330.542530064912, 570.167174251547, 169.064744513433, 252.395671429756, -49596.8397852739, 0, ]
  - [17900, -49598.3983142783, 447.772611357237, -49150.6257029211, 297.017891965147, 52.266, 52.266, 52.266, 142776.848757096, -406.076826929519, -496.344577973842, -364.431511407107, -357.454391407607, -49598.3983142783, 0, ]
  - [18000, -49600.62972857, 453.275947067357, -49147.3537815026, 300.668381365206, 52.266, 52.266, 52.266, 142776.848757096, -529.836968695623, -663.414012039975, -400.083623106401, -526.013270940497, -49600.62972857, 0, ]
  - [18100, -49599.5673915971, 453.54037645123, -49146.0270151459, 300.843783469265, 52.266, 52.266, 52.266, 142776.848757096, -393.362907126145, -407.333712627755, -369.821973442572, -402.933035308108, -49599.5673915971, 0, ]
  - [18200, -49596.538830856, 452.864942024665, -49143.6738888314, 300.39575224884, 52.266, 52.266, 52.266, 142776.848757096, 385.369169046959, 317.97525709236, 586.578702160937, 251.55354788758, -49596.538830856, 0, ]
  - [18300, -49604.2323961608, 452.684724516685, -49151.5476716441, 300.276209822712, 52.266, 52.266, 52.266, 142776.848757096, -654.665623038812, -615.618247324334, -394.117356520672, -954.261265271431, -49604.2323961608, 0, ]
  - [18400, -49599.0535608893, 451.511595275566, -49147.5419656138, 299.498046162492, 52.266, 52.266, 52.266, 142776.848757096, -74.2302089569239, -78.9401610414276, -143.756285283937, 0.00581945459384535, -49599.0535608893, 0, ]
  - [18500, -49600.7806952916, 454.946661188163, -49145.8340341034, 301.77660454289, 52.266, 52.266, 52.266, 142776.848757096, -278.8986381653, -194.079226431005, -365.127730405913, -277.48895765898, -49600.7806952916, 0, ]
  - [18600, -49600.4048773313, 447.115037492044, -49153.2898398393, 296.581708066675, 52.266, 52.266, 52.266, 142776.848757096, -323.56208606191, -170.013597138422, -415.475783888155, -385.196877159153, -49600.4048773313, 0, ]
  - [18700, -49597.5799271031, 451.981014361344, -49145.5989127418, 299.80942265978, 52.266, 52.266, 52.266, 142776.848757096, 158.527882322927, 160.400998070311, 177.181730413419, 138.000918485051, -49597.5799271031, 0, ]
  - [18800, -49596.7074870138, 450.504115370757, -49146.203371643, 298.829761524411, 52.266, 52.266, 52.266, 142776.848757096, 188.306765929158, 374.411126792218, 161.878933389546, 28.6302376057119, -49596.7074870138, 0, ]
  - [18900, -49593.1163969865, 454.097206026917, -49139.0191909596, 301.213141358871, 52.266, 52.266, 52.266, 142776.848757096, 891.37325025008, 970.463410041933, 559.318645411592, 1144.33769529671, -49593.1163969865, 0, ]
  - [19000, -49592.1291096968, 455.347151701838, -49136.7819579949, 302.042259129854, 52.266, 52.266, 52.266, 142776.848757096, 1025.06605459378, 1159.4470223408, 858.296732292644, 1057.45440914788, -49592.1291096968, 0, ]
  - [19100, -49596.3498278949, 453.393471596244, -49142.9563562987, 300.746338093552, 52.266, 52.266, 52.266, 142776.848757096, 310.795708276156, 277.479898824458, 408.943606457293, 245.963619546718, -49596.3498278949, 0, ]
  - [19200, -49601.1375695266, 456.259838194662, -49144.8777313319, 302.647665113266, 52.266, 52.266, 52.266, 142776.848757096, -320.078405153673, -367.645314792054, -176.898415467757, -415.69148520121, -49601.1375695266, 0, ]
  - [19300, -49591.9989462197, 450.735061586619, -49141.2638846331, 298.982953471513, 52.266, 52.266, 52.266, 142776.848757096, 631.129950301476, 827.707621133147, 358.139921347433, 707.542308423845, -49591.9989462197, 0, ]
  - [19400, -49591.4051508613, 446.044942928679, -49145.3602079326, 295.871889682628, 52.266, 52.266, 52.266, 142776.848757096, 640.626194940964, 689.203744285042, 404.338661446303, 828.336179091546, -49591.4051508613, 0, ]
  - [19500, -49597.2221489767, 453.937283798772, -49143.284865178, 301.107061259559, 52.266, 52.266, 52.266, 142776.848757096, 55.8992003927484, 40.34760455868, 166.928587589238, -39.5785909696713, -49597.2221489767, 0, ]
  - [19600, -49595.4525258982, 453.762683005732, -49141.6898428925, 300.991244529886, 52.266, 52.266, 52.266, 142776.848757096, 289.85465140089, 254.874116102323, 118.248064254323, 496.441773846026, -49595.4525258982, 0, ]
  - [19700, -49600.1634762127, 454.979609110863, -49145.1838671018, 301.798459659297, 52.266, 52.266, 52.266, 142776.848757096, -212.508996420376, -157.907406958316, -157.280972786313, -322.338609516503, -49600.1634762127, 0, ]
  - [19800, -49594.6993872335, 449.31807470377, -49145.3813125298, 298.043033417871, 52.266, 52.266, 52.266, 142776.848757096, 419.590291076553, 266.274389962136, 447.21486700094, 545.281616266582, -49594.6993872335, 0, ]
  - [19900, -49596.4536352238, 450.762665783197, -49145.6909694406, 299.001263971237, 52.266, 52.266, 52.266, 142776.848757096, 275.844176044995, 80.0670688327944, 447.523150398254, 299.942308903936, -49596.4536352238, 0, ]
  - [20000, -49596.8603699115, 450.713485323004, -49146.1468845885, 298.968641438635, 52.266, 52.266, 52.266, 142776.848757096, 125.202678253962, -5.59179862096209, 159.873150737852, 221.326682644995, -50057.8027866954, 0, ]
...
Loop time of 22.9315 on 64 procs for 20000 steps with 11664 atoms

Performance: 75.355 ns/day, 0.318 hours/ns, 872.164 timesteps/s, 10.173 Matom-step/s
63.3% CPU use with 64 MPI tasks x 1 OpenMP threads

MPI task timing breakdown:
Section |  min time  |  avg time  |  max time  |%varavg| %total
---------------------------------------------------------------
Pair    | 11.245     | 12.521     | 12.979     |   7.5 | 54.60
Neigh   | 0          | 0          | 0          |   0.0 |  0.00
Comm    | 6.2457     | 6.9694     | 8.3839     |  12.7 | 30.39
Output  | 0.035492   | 0.036966   | 0.11213    |   4.9 |  0.16
Modify  | 2.4752     | 2.8663     | 3.4431     |  13.5 | 12.50
Other   |            | 0.5382     |            |       |  2.35

Nlocal:         182.25 ave         189 max         180 min
Histogram: 48 0 0 0 0 0 0 0 0 16
Nghost:        1275.75 ave        1278 max        1269 min
Histogram: 16 0 0 0 0 0 0 0 0 48
Neighs:           8019 ave        9056 max        7499 min
Histogram: 12 10 18 6 3 1 4 4 4 2

Total # of neighbors = 513216
Ave neighs/atom = 44
Neighbor list builds = 0
Dangerous builds = 0
fix fpf all print 1 "${dE} ${lambda}" title "# dE [eV] lambda" screen no file data/forward_${T}K.dat
fix fpf all print 1 "${dE} ${lambda}" title "# dE [eV] lambda" screen no file data/forward_300K.dat
run ${t}
run 100000
Per MPI rank memory allocation (min/avg/max) = 3.736 | 3.736 | 3.736 Mbytes
---
keywords: ['Step', 'PotEng', 'KinEng', 'TotEng', 'Temp', 'Lx', 'Ly', 'Lz', 'Volume', 'Press', 'Pxx', 'Pyy', 'Pzz', 'v_dE', 'v_lambda', ]
data:
  - [20000, -49596.8603699115, 450.713485323004, -49146.1468845885, 298.968641438635, 52.266, 52.266, 52.266, 142776.848757096, 125.202678253957, -5.59179862096145, 159.873150737823, 221.326682645012, -50057.8027866954, 0, ]
  - [20100, -49596.5106739592, 448.520536519757, -49147.9901374395, 297.514007961269, 52.266, 52.266, 52.266, 142776.848757096, 217.002087994587, 275.573873276132, 204.048322496966, 171.384068210665, -50058.1133445651, 1.2558053968507e-13, ]
  - [20200, -49597.878205132, 448.837898422037, -49149.04030671, 297.724521424607, 52.266, 52.266, 52.266, 142776.848757096, 59.6339486585529, -48.785982952274, 25.0053105579442, 202.68251836999, -50061.7711861817, 4.00518903939584e-12, ]
  - [20300, -49603.5775283734, 451.770319845481, -49151.8072085279, 299.669664131985, 52.266, 52.266, 52.266, 142776.848757096, -802.970529499155, -762.033703764287, -562.533498251722, -1084.34438648145, -50066.5036159765, 3.03129989146628e-11, ]
  - [20400, -49600.3002424376, 450.148575506912, -49150.1516669307, 298.59392373936, 52.266, 52.266, 52.266, 142776.848757096, -294.793219070099, -292.96199907775, -282.489148567432, -308.928509565113, -50065.2630865982, 1.2731250673451e-10, ]
  - [20500, -49597.2525997573, 452.787107321567, -49144.4654924358, 300.344122696586, 52.266, 52.266, 52.266, 142776.848757096, 135.383616298427, 134.587916233841, 45.5731238136494, 225.989808847794, -50072.2361740032, 3.87229564589844e-10, ]
  - [20600, -49595.5818260554, 452.758257299214, -49142.8235687561, 300.324985811915, 52.266, 52.266, 52.266, 142776.848757096, 417.755019902822, 636.801707843268, 361.798057146097, 254.665294719102, -50063.2053506291, 9.60331117066399e-10, ]
  - [20700, -49597.0355108367, 453.223617444307, -49143.8118933924, 300.633669920309, 52.266, 52.266, 52.266, 142776.848757096, 113.251971476664, 193.353450390769, -113.051132261747, 259.453596300971, -50063.7581696112, 2.06871232013244e-09, ]
  - [20800, -49592.1861589804, 454.710369473866, -49137.4757895065, 301.61986680349, 52.266, 52.266, 52.266, 142776.848757096, 889.651191107627, 739.674052532442, 960.475840719294, 968.803680071146, -50058.3062276034, 4.0197947066522e-09, ]
  - [20900, -49602.162628857, 446.995366479524, -49155.1672623775, 296.50232752627, 52.266, 52.266, 52.266, 142776.848757096, -413.140525836581, -300.667323948937, -669.861579939242, -268.892673621565, -50054.1019484698, 7.21953805066232e-09, ]
  - [21000, -49600.219374362, 447.086974269284, -49153.1324000927, 296.563093084305, 52.266, 52.266, 52.266, 142776.848757096, -205.514924185696, -156.1091246129, -185.536787445132, -274.898860499056, -50058.1047314059, 1.218536857e-08, ]
  - [21100, -49597.6597029478, 457.134957422344, -49140.5247455254, 303.228151863977, 52.266, 52.266, 52.266, 142776.848757096, 169.897510588445, 115.107412497521, 123.586353323328, 270.998765944486, -50050.4848361717, 1.95588260943488e-08, ]
  - [21200, -49596.8469139306, 453.619078368726, -49143.2278355619, 300.895988264813, 52.266, 52.266, 52.266, 142776.848757096, 138.163278871804, 168.7047879283, 204.736090097935, 41.0489585891753, -50051.249099492, 3.01179328132704e-08, ]
  - [21300, -49600.9613685977, 454.427680967975, -49146.5336876297, 301.432353003019, 52.266, 52.266, 52.266, 142776.848757096, -353.592788396001, -335.002918037972, -395.203278706734, -330.572168443293, -50055.1745724682, 4.47892862063179e-08, ]
  - [21400, -49603.8103729151, 451.180354583256, -49152.6300183318, 299.278326577892, 52.266, 52.266, 52.266, 142776.848757096, -708.884888015479, -756.02697017275, -837.426465735389, -533.201228138299, -50051.803304893, 6.46598787448807e-08, ]
  - [21500, -49600.2120774874, 451.915033120667, -49148.2970443667, 299.765655782311, 52.266, 52.266, 52.266, 142776.848757096, -58.1631105891382, -32.2189717382548, 75.3392332152345, -217.609593244392, -50049.8598554854, 9.09886469429883e-08, ]
  - [21600, -49594.442107349, 447.487734587015, -49146.954372762, 296.828926638517, 52.266, 52.266, 52.266, 142776.848757096, 405.117288160396, 459.406530512363, 163.540516127162, 592.404817841663, -50046.3106673714, 1.25217752321905e-07, ]
  - [21700, -49595.0640534005, 452.224117653321, -49142.8399357472, 299.970678675627, 52.266, 52.266, 52.266, 142776.848757096, 414.673333721663, 685.539302950291, 108.371028843355, 450.109669371344, -50043.5379424916, 1.68983596840977e-07, ]
  - [21800, -49595.9717766685, 450.654230457754, -49145.3175462108, 298.929336320995, 52.266, 52.266, 52.266, 142776.848757096, 191.258532869847, 152.947147983476, 289.363476457827, 131.464974168236, -50046.5151698309, 2.24127575334849e-07, ]
  - [21900, -49598.5440564814, 453.311698671157, -49145.2323578102, 300.692096227897, 52.266, 52.266, 52.266, 142776.848757096, 34.8178187037771, 104.246705329123, 75.3414308555837, -75.1346800733758, -50045.9938310198, 2.92706567484841e-07, ]
  - [22000, -49595.8026619725, 450.449253129593, -49145.3534088429, 298.793370135555, 52.266, 52.266, 52.266, 142776.848757096, 341.160697990453, 190.156401866965, 506.459136784338, 326.866555320055, -50050.4164020994, 3.7700317184e-07, ]
  - [22100, -49593.2989006033, 452.480925969611, -49140.8179746337, 300.141025549931, 52.266, 52.266, 52.266, 142776.848757096, 721.830729072535, 751.227093462823, 747.122249263993, 667.142844490788, -50048.5201417313, 4.79535684391045e-07, ]
  - [22200, -49597.7329694158, 456.767923491961, -49140.9650459238, 302.984689799713, 52.266, 52.266, 52.266, 142776.848757096, 93.4720406515263, 89.7641476196217, -58.5344329078839, 249.18640724284, -50052.8716966923, 6.03067824188202e-07, ]
  - [22300, -49595.5972068475, 450.045000367547, -49145.5522064799, 298.525219962546, 52.266, 52.266, 52.266, 142776.848757096, 139.3619524144, 251.495435605113, 48.8068293799495, 117.783592258137, -50042.6796416631, 7.50618208481703e-07, ]
  - [22400, -49598.7252270828, 449.012363095745, -49149.7128639871, 297.84024786319, 52.266, 52.266, 52.266, 142776.848757096, 137.223221082896, -37.692233499508, 201.137757544039, 248.224139204156, -50042.3513283134, 9.25469579851522e-07, ]
  - [22500, -49602.7120555305, 450.764037474119, -49151.9480180564, 299.002173845436, 52.266, 52.266, 52.266, 142776.848757096, -544.506926608949, -570.292805681775, -512.624422293185, -550.603551851887, -50045.8393961183, 1.13117778778076e-06, ]
  - [22600, -49601.4797773689, 452.983641935794, -49148.4961354331, 300.474488635313, 52.266, 52.266, 52.266, 142776.848757096, -407.318299888015, -592.630905212378, -212.638683978872, -416.685310472794, -50061.4697217824, 1.37158052711496e-06, ]
  - [22700, -49594.3136925389, 453.137736520236, -49141.1759560186, 300.57670312426, 52.266, 52.266, 52.266, 142776.848757096, 506.279799697723, 553.538811446379, 458.253508008263, 507.047079638526, -50057.0284091847, 1.65080583583745e-06, ]
  - [22800, -49600.0924879363, 452.822462369916, -49147.2700255664, 300.367574514908, 52.266, 52.266, 52.266, 142776.848757096, -10.8215253163019, 88.1189261335811, -97.3287469764022, -23.2547551060873, -50058.3982404243, 1.97328035457892e-06, ]
  - [22900, -49596.2091409949, 450.67279809486, -49145.5363429, 298.941652662576, 52.266, 52.266, 52.266, 142776.848757096, 92.0773394632451, 8.79831824302999, 12.110327068604, 255.323373078102, -50043.7098642424, 2.343737350267e-06, ]
  - [23000, -49597.6318068012, 454.722158930031, -49142.9096478711, 301.627687021451, 52.266, 52.266, 52.266, 142776.848757096, -42.1860716902631, -195.512261628497, 51.4878456011825, 17.4662009565241, -50040.4345744411, 2.76722450631e-06, ]
  - [23100, -49595.6381953478, 455.44135286432, -49140.1968424834, 302.10474493178, 52.266, 52.266, 52.266, 142776.848757096, 273.965258913898, 215.773419911407, 154.469216686482, 451.653140143803, -50042.502774399, 3.2491114816967e-06, ]
  - [23200, -49598.2512257556, 456.905492991933, -49141.3457327637, 303.075942819312, 52.266, 52.266, 52.266, 142776.848757096, 192.685369733602, 83.4071732223279, 240.959150834107, 253.689785144373, -50050.7953094925, 3.79509724138202e-06, ]
  - [23300, -49594.3591004673, 451.629951574774, -49142.7291488925, 299.57655462326, 52.266, 52.266, 52.266, 142776.848757096, 409.286324806513, 529.245325773067, 449.206002009889, 249.407646636582, -50059.0785668011, 4.41121716031674e-06, ]
  - [23400, -49595.4698003651, 460.019623631951, -49135.4501767331, 305.141617437505, 52.266, 52.266, 52.266, 142776.848757096, 214.618380493699, 23.9404275671893, 350.224382627967, 269.690331285942, -50059.6286125915, 5.10384990346721e-06, ]
  - [23500, -49590.0949288032, 450.512923216939, -49139.5820055863, 298.835603971759, 52.266, 52.266, 52.266, 142776.848757096, 1336.62469281295, 1427.465942792, 1195.56610464835, 1386.8420309985, -50055.8659223417, 5.87972408415916e-06, ]
  - [23600, -49598.7590330097, 454.639588317783, -49144.1194446919, 301.572916031519, 52.266, 52.266, 52.266, 142776.848757096, 13.2318778720444, 59.4592413407676, -49.9675758877113, 30.2039681630776, -50053.1879346469, 6.74592470306796e-06, ]
  - [23700, -49604.1188335725, 450.659605646379, -49153.4592279261, 298.932901807481, 52.266, 52.266, 52.266, 142776.848757096, -1032.01241441725, -992.195725761836, -1090.47656692611, -1013.36495056382, -50056.6140819134, 7.70989937016563e-06, ]
  - [23800, -49600.325020005, 448.285089803246, -49152.0399302018, 297.357830728373, 52.266, 52.266, 52.266, 142776.848757096, -257.145081903266, -128.154915242298, -354.789706834392, -288.490623633108, -50051.692865239, 8.77946431192315e-06, ]
  - [23900, -49601.5740799021, 448.034435678178, -49153.5396442239, 297.191566070929, 52.266, 52.266, 52.266, 142776.848757096, -725.013454727814, -701.931825235466, -607.197683371594, -865.910855576383, -50045.671657333, 9.96281016605489e-06, ]
  - [24000, -49603.1882117504, 451.835437188528, -49151.3527745618, 299.712857966247, 52.266, 52.266, 52.266, 142776.848757096, -761.276501669368, -621.59184336702, -935.475747205272, -726.761914435813, -50046.1638354864, 1.126850756608e-05, ]
  - [24100, -49597.6597853685, 449.841682425103, -49147.8181029434, 298.390354485892, 52.266, 52.266, 52.266, 142776.848757096, -53.7564796164026, 15.148176108395, -187.012681933144, 10.5950669755421, -50046.0865396673, 1.2705512517964e-05, ]
  - [24200, -49597.9132316458, 453.886569667073, -49144.0266619787, 301.073421407303, 52.266, 52.266, 52.266, 142776.848757096, -58.7718661195265, -19.8425201322115, 38.1691306075403, -194.642208833908, -50046.7015411188, 1.42831715710919e-05, ]
  - [24300, -49596.0400650853, 454.050198953771, -49141.9898661315, 301.181960483982, 52.266, 52.266, 52.266, 142776.848757096, 457.91193810909, 552.914997206789, 509.743694632451, 311.07712248803, -50045.9231924539, 1.60112267858132e-05, ]
  - [24400, -49590.0037696499, 447.944086109086, -49142.0596835408, 297.131635119658, 52.266, 52.266, 52.266, 142776.848757096, 985.152271269895, 934.711097846477, 1164.31606156816, 856.429654395049, -50058.1302696421, 1.78998204997854e-05, ]
  - [24500, -49592.9077786421, 451.022675890322, -49141.8851027518, 299.173734667186, 52.266, 52.266, 52.266, 142776.848757096, 691.867301947738, 490.169439544566, 678.38994638292, 907.042519915728, -50059.3727155452, 1.99594998953344e-05, ]
  - [24600, -49597.7647219963, 453.425463489923, -49144.3392585064, 300.767559053877, 52.266, 52.266, 52.266, 142776.848757096, 14.1136064717478, 146.791592984733, -149.215986243102, 44.7652126736133, -50065.3769041681, 2.2201221370035e-05, ]
  - [24700, -49596.3720103814, 451.938068241872, -49144.4339421396, 299.780935509047, 52.266, 52.266, 52.266, 142776.848757096, 332.319278489034, 138.455059430642, 672.721028954571, 185.78174708189, -50063.0503089666, 2.46363547127047e-05, ]
  - [24800, -49599.4890328745, 455.877420108665, -49143.6116127659, 302.393998384057, 52.266, 52.266, 52.266, 142776.848757096, -105.407020967615, -102.217109677297, -77.7917641538273, -136.212189071717, -50051.7765148949, 2.7276687086994e-05, ]
  - [24900, -49600.1747005924, 450.623935010538, -49149.5507655819, 298.909240652703, 52.266, 52.266, 52.266, 142776.848757096, -146.159033201074, -47.7695096693483, -197.529462813203, -193.178127120672, -50046.4208359529, 3.01344268247409e-05, ]
  - [25000, -49592.1609598943, 446.02533049633, -49146.135629398, 295.858880304285, 52.266, 52.266, 52.266, 142776.848757096, 713.88086081956, 708.518499144022, 582.72961212342, 850.394471191237, -50045.6429398409, 3.322220703125e-05, ]
  - [25100, -49592.9428958352, 447.351749162632, -49145.5911466726, 296.73872437276, 52.266, 52.266, 52.266, 142776.848757096, 859.839221436629, 828.925820328754, 646.00021238076, 1104.59163160037, -50052.6235161275, 3.6553089004642e-05, ]
  - [25200, -49597.8584792486, 452.13277609577, -49145.7257031528, 299.910089715551, 52.266, 52.266, 52.266, 142776.848757096, 49.3649800138231, -125.81845615277, 172.75888958379, 101.154506610451, -50056.7248717901, 4.01405654714096e-05, ]
  - [25300, -49599.6178465614, 456.074630514794, -49143.5432160466, 302.524812591127, 52.266, 52.266, 52.266, 142776.848757096, -84.9377672575567, -59.6803752280366, 4.59078119616678, -199.723707740797, -50055.5480218474, 4.39985636403039e-05, ]
  - [25400, -49598.753497108, 452.240864761014, -49146.512632347, 299.981787418094, 52.266, 52.266, 52.266, 142776.848757096, 53.9736468202971, -11.1818675264775, -34.1081947486741, 207.211002736042, -50054.3292216603, 4.81414480766634e-05, ]
  - [25500, -49598.9575159299, 455.063279896291, -49143.8942360336, 301.853960419452, 52.266, 52.266, 52.266, 142776.848757096, 30.880758854255, 93.4573590234908, -68.0858543829478, 67.2707719222246, -50054.5852713808, 5.25840233992879e-05, ]
  - [25600, -49596.4246081282, 452.666948293538, -49143.7576598347, 300.264418444248, 52.266, 52.266, 52.266, 142776.848757096, 341.629427442624, 369.831764299561, 294.652637150412, 360.403880877899, -50059.2715715172, 5.7341536801945e-05, ]
  - [25700, -49598.6172510262, 456.122318256618, -49142.4949327695, 302.556444969236, 52.266, 52.266, 52.266, 142776.848757096, 18.6307272698004, -69.5015505782293, 50.2201493714643, 75.1735830161661, -50051.7003150211, 6.24296804015908e-05, ]
  - [25800, -49591.0323146891, 449.957082773759, -49141.0752319153, 298.466902196538, 52.266, 52.266, 52.266, 142776.848757096, 1038.94119061749, 991.883133543868, 1071.32687336102, 1053.61356494759, -50044.8492059313, 6.78645934153687e-05, ]
  - [25900, -49601.9900353187, 453.853519437, -49148.1365158817, 301.051498428058, 52.266, 52.266, 52.266, 142776.848757096, -612.046557979099, -574.856696649032, -605.114377030356, -656.168600257908, -50054.6314734897, 7.36628641684442e-05, ]
  - [26000, -49596.5303086987, 450.408430335032, -49146.1218783637, 298.766291435167, 52.266, 52.266, 52.266, 142776.848757096, 245.852746922402, 341.792251465015, 230.128500284585, 165.637489017608, -50054.7590177672, 7.98415319347201e-05, ]
  - [26100, -49597.4404296908, 458.595964696621, -49138.8444649942, 304.197271657696, 52.266, 52.266, 52.266, 142776.848757096, 226.998821995491, 278.881922195324, 157.178010767853, 244.936533023295, -50044.838512041, 8.64180886124637e-05, ]
  - [26200, -49596.5786551275, 454.185105195718, -49142.3935499318, 301.271446903159, 52.266, 52.266, 52.266, 142776.848757096, 337.201940864471, 708.530280773411, 242.630400576115, 60.4451412438876, -50044.9613156755, 9.34104802368714e-05, ]
  - [26300, -49600.6118043062, 457.365414050924, -49143.2463902553, 303.381019056552, 52.266, 52.266, 52.266, 142776.848757096, -189.988598986571, -132.372877136968, -93.1152962496142, -344.477623573135, -50040.6771232179, 0.000100837108331577, ]
  - [26400, -49593.848070421, 446.218103524534, -49147.6299668964, 295.986751096318, 52.266, 52.266, 52.266, 142776.848757096, 396.360224316056, 621.840741167831, 513.904821317053, 53.3351104632824, -50050.6433569695, 0.000108716831101108, ]
  - [26500, -49594.7109127403, 454.608985175863, -49140.1019275644, 301.552616262239, 52.266, 52.266, 52.266, 142776.848757096, 230.500764168753, 204.969335146999, 90.1108500690268, 396.422107290234, -50048.5738243735, 0.000117068964466276, ]
  - [26600, -49601.0866178217, 454.755671260869, -49146.3309465609, 301.649916522782, 52.266, 52.266, 52.266, 142776.848757096, -395.328127109559, -460.316731462051, -226.983952822761, -498.683697043865, -50044.4531150302, 0.000125913282944476, ]
  - [26700, -49601.2433862342, 455.523783810333, -49145.7196024239, 302.159423277879, 52.266, 52.266, 52.266, 142776.848757096, -618.388033112938, -416.973774792831, -746.283511913872, -691.906812632109, -50043.8891718452, 0.000135270020376872, ]
  - [26800, -49598.2278046839, 456.380306214128, -49141.8474984697, 302.727574326745, 52.266, 52.266, 52.266, 142776.848757096, 12.3067059364875, 242.398787077132, -111.174317164269, -94.3043521034013, -50042.402121491, 0.000145159870504403, ]
  - [26900, -49595.3984029648, 452.490780740632, -49142.9076222241, 300.147562446651, 52.266, 52.266, 52.266, 142776.848757096, 261.489885159365, 539.648316288914, 89.569352959788, 155.251986229398, -50048.9246419508, 0.000155603987394582, ]
  - [27000, -49600.9409056023, 446.014896556006, -49154.9260090463, 295.85195923122, 52.266, 52.266, 52.266, 142776.848757096, -695.022391842123, -718.268836805337, -785.537956989967, -581.260381731064, -50056.3833088483, 0.00016662398572099, ]
  - [27100, -49597.5653837288, 453.950596709686, -49143.6147870191, 301.115892020161, 52.266, 52.266, 52.266, 142776.848757096, -63.0780723403141, 139.457656352814, 47.4020257950957, -376.093899168853, -50056.8266521494, 0.000178241940897419, ]
  - [27200, -49600.4640910923, 452.437836762218, -49148.02625433, 300.112443485683, 52.266, 52.266, 52.266, 142776.848757096, -198.18957404166, -144.838161021499, -266.767290279421, -182.96327082406, -50063.2572490756, 0.000190480389068545, ]
  - [27300, -49599.8134796353, 452.005541756436, -49147.8079378788, 299.825692246174, 52.266, 52.266, 52.266, 142776.848757096, -112.229226694565, 21.5710383492058, -179.044057492437, -179.214660940464, -50055.8765409723, 0.000203362326959055, ]
  - [27400, -49596.6429639427, 454.233951336514, -49142.4090126062, 301.303847674001, 52.266, 52.266, 52.266, 142776.848757096, 288.731322974384, 286.029213860493, 247.231715639231, 332.933039423429, -50054.8689899417, 0.000216911211583103, ]
  - [27500, -49600.1339735184, 456.878030707029, -49143.2559428114, 303.057726452872, 52.266, 52.266, 52.266, 142776.848757096, -306.269501938562, -255.775781432529, -376.812456239855, -286.220268143305, -50055.3020653792, 0.000231150959815979, ]
  - [27600, -49605.4021739857, 454.994921940392, -49150.4072520453, 301.808617012005, 52.266, 52.266, 52.266, 142776.848757096, -891.497869932289, -897.704882605455, -780.742309268952, -996.04641792246, -50044.6621874657, 0.00024610594782986, ]
  - [27700, -49602.7491292199, 451.079485944806, -49151.6696432751, 299.211418085505, 52.266, 52.266, 52.266, 142776.848757096, -492.800468707766, -341.38795895745, -517.384268399475, -619.629178766372, -50042.9714275501, 0.000261801010395495, ]
  - [27800, -49598.4078692654, 450.62099209498, -49147.7868771704, 298.907288548994, 52.266, 52.266, 52.266, 142776.848757096, 118.001595358195, 78.2708951833575, 6.21866613210602, 269.515224759123, -50038.5483501967, 0.000278261440051671, ]
  - [27900, -49594.5367980295, 447.512893677634, -49147.0239043519, 296.845615243112, 52.266, 52.266, 52.266, 142776.848757096, 204.939608282118, 291.369558056561, 153.502985772576, 169.946281017215, -50045.9959682471, 0.000295512986144304, ]
  - [28000, -49597.8316636573, 447.60304450603, -49150.2286191513, 296.905414365099, 52.266, 52.266, 52.266, 142776.848757096, 184.390460213521, 305.168647412911, 274.275294414412, -26.2725611867603, -50040.710074187, 0.00031358185373696, ]
  - [28100, -49599.4148573462, 453.04406704662, -49146.3707902996, 300.514570003811, 52.266, 52.266, 52.266, 142776.848757096, -236.055575035604, -350.480469208861, -363.771597395141, 6.08534149719102, -50041.0006341159, 0.000332494702394641, ]
  - [28200, -49598.7775700294, 450.33447074619, -49148.4430992832, 298.7172323355, 52.266, 52.266, 52.266, 142776.848757096, -268.0091936194, -335.082722723512, -117.129264715188, -351.8155934195, -50052.120675757, 0.000352278644842627, ]
  - [28300, -49602.1698730632, 441.359152614888, -49160.8107204484, 292.763696984163, 52.266, 52.266, 52.266, 142776.848757096, -669.064879785343, -769.239743147511, -630.68740284239, -607.267493366128, -50049.5228308001, 0.000372961245502164, ]
  - [28400, -49600.7894752979, 450.545708537172, -49150.2437667607, 298.857351230202, 52.266, 52.266, 52.266, 142776.848757096, -429.600812543884, -244.071439406955, -470.637529208418, -574.093469016278, -50043.9016495251, 0.000394570518904788, ]
  - [28500, -49600.3664429495, 447.742801466554, -49152.6236414829, 296.998118377693, 52.266, 52.266, 52.266, 142776.848757096, -300.483464547584, -364.134479322094, -269.452540271036, -267.86337404962, -50041.1539972325, 0.000417134927987054, ]
  - [28600, -49606.2373617004, 449.509592585726, -49156.7277691147, 298.170071642473, 52.266, 52.266, 52.266, 142776.848757096, -887.275932315111, -923.99084203274, -780.430883630275, -957.406071282318, -50037.3265720391, 0.000440683382267422, ]
  - [28700, -49603.6182692588, 447.316883119201, -49156.3013861396, 296.71559692267, 52.266, 52.266, 52.266, 142776.848757096, -856.609347395736, -658.029216991205, -1087.85408652327, -823.944738672731, -50050.0120272408, 0.000465245235907057, ]
  - [28800, -49598.1297050825, 449.75015499376, -49148.3795500887, 298.329642231446, 52.266, 52.266, 52.266, 142776.848757096, -65.2380925243304, 38.5590580012064, -25.3133329403261, -208.960002633871, -50049.5087340222, 0.000490850285656287, ]
  - [28900, -49598.2312947301, 450.158532671166, -49148.072762059, 298.600528555871, 52.266, 52.266, 52.266, 142776.848757096, 105.402467382521, -29.4289827880498, 104.100370530615, 241.536014404998, -50046.0304203549, 0.000517528768688429, ]
  - [29000, -49598.7850416026, 453.393121553844, -49145.3919200488, 300.746105902361, 52.266, 52.266, 52.266, 142776.848757096, -89.5960671633402, 33.825058419138, -178.160369578246, -124.45289033091, -50051.3910372209, 0.00054531136032273, ]
  - [29100, -49598.0858189901, 452.031541847263, -49146.0542771429, 299.842938705588, 52.266, 52.266, 52.266, 142776.848757096, 39.594466886053, -129.65938177766, 142.576106887435, 105.866675548383, -50050.6917146125, 0.000574229171638096, ]
  - [29200, -49596.0702648293, 449.061829383584, -49147.0084354457, 297.873059991857, 52.266, 52.266, 52.266, 142776.848757096, 393.815274624494, 499.693356865043, 518.324743445642, 163.427723562801, -50053.6799930315, 0.000604313746979337, ]
  - [29300, -49594.7493448341, 450.608332904004, -49144.1410119301, 298.89889141589, 52.266, 52.266, 52.266, 142776.848757096, 397.634358556678, 464.093521466758, 438.52865197588, 290.280902227395, -50055.9287367213, 0.000635597061357593, ]
  - [29400, -49596.8042562403, 448.433640534691, -49148.3706157056, 297.456367851869, 52.266, 52.266, 52.266, 142776.848757096, 257.03128050676, 318.743476611146, 121.46393100712, 330.886433902014, -50051.478208601, 0.000668111517746635, ]
  - [29500, -49594.8819519306, 454.065035285696, -49140.8169166449, 301.191801764849, 52.266, 52.266, 52.266, 142776.848757096, 454.368433825614, 549.122612341931, 542.214344096891, 271.768345038023, -50045.7169914067, 0.000701889944276683, ]
  - [29600, -49597.6839789483, 450.433063502755, -49147.2509154455, 298.782631182985, 52.266, 52.266, 52.266, 142776.848757096, 74.5349322906701, -244.007612978283, 97.0271956086281, 370.585214241666, -50058.1798410454, 0.000736965591327429, ]
  - [29700, -49598.1021601493, 447.437010106488, -49150.6651500429, 296.795279921646, 52.266, 52.266, 52.266, 142776.848757096, -217.477939131835, -408.321489600301, -184.244076000603, -59.8682517946019, -50059.3334058928, 0.000773372128521878, ]
  - [29800, -49595.3635013843, 448.627198986075, -49146.7363023983, 297.584759633198, 52.266, 52.266, 52.266, 142776.848757096, 21.6277136233173, -122.848467000041, 214.426336409433, -26.6947285394382, -50055.0110208032, 0.00081114364162266, ]
  - [29900, -49597.4426589399, 454.596771972399, -49142.8458869675, 301.54451496293, 52.266, 52.266, 52.266, 142776.848757096, -80.493730664242, -134.518714341734, 102.934709407841, -209.897187058834, -50049.567861591, 0.000850314629332433, ]
  - [30000, -49593.3164472696, 446.517645827514, -49146.7988014421, 296.185444408792, 52.266, 52.266, 52.266, 142776.848757096, 504.489839669802, 448.614037242029, 354.768985303184, 710.086496464192, -50048.6259582815, 0.000890920000000001, ]
  - [30100, -49602.0759086903, 453.22205708216, -49148.8538516082, 300.632634896139, 52.266, 52.266, 52.266, 142776.848757096, -468.040266718835, -565.495066863667, -458.089945988262, -380.535787304577, -50055.1231392125, 0.000932995068233718, ]
  - [30200, -49595.8072673877, 453.417466138434, -49142.3898012493, 300.762254226337, 52.266, 52.266, 52.266, 142776.848757096, 199.612020759416, 54.3321394236605, 78.1965191064124, 466.307403748175, -50055.8381313644, 0.000976575551423828, ]
  - [30300, -49595.3964430724, 454.672648754765, -49140.7237943176, 301.594845781242, 52.266, 52.266, 52.266, 142776.848757096, 483.267531156473, 506.998336980573, 578.706839757261, 364.097416731587, -50050.9259324341, 0.00102169756617526, ]
  - [30400, -49597.3483782118, 449.63769022332, -49147.7106879885, 298.255041757479, 52.266, 52.266, 52.266, 142776.848757096, -215.378467548838, -269.812201082994, -129.019783003349, -247.303418560172, -50056.7892093365, 0.00106839762465251, ]
  - [30500, -49600.2105330671, 450.778308483164, -49149.432224584, 299.011640134609, 52.266, 52.266, 52.266, 142776.848757096, -268.644562993957, -241.603097914785, -201.671788904084, -362.658802163005, -50050.6862183283, 0.00111671263083812, ]
  - [30600, -49597.4445030535, 452.224955829303, -49145.2195472242, 299.971234657072, 52.266, 52.266, 52.266, 142776.848757096, -170.055542560708, -208.306063858759, -104.958909291485, -196.901654531881, -50044.7381670094, 0.00116667987670637, ]
  - [30700, -49593.3175884495, 453.249054795678, -49140.0685336538, 300.650543101673, 52.266, 52.266, 52.266, 142776.848757096, 723.605747457188, 705.125198871748, 728.220535067807, 737.471508432008, -50043.5348374958, 0.00121833703831365, ]
  - [30800, -49598.9302518508, 449.624356531229, -49149.3058953196, 298.246197212242, 52.266, 52.266, 52.266, 142776.848757096, -32.36459516948, -34.6658358664985, 12.6074281813928, -75.0353778233329, -50042.8802505471, 0.00127172217180712, ]
  - [30900, -49595.68036989, 459.153715887316, -49136.5266540027, 304.567240875776, 52.266, 52.266, 52.266, 142776.848757096, 122.769950873161, 118.300243740282, 135.967292077508, 114.042316801694, -50047.3987318449, 0.00132687370935312, ]
  - [31000, -49599.3830879505, 456.531371817813, -49142.8517161327, 302.827779622953, 52.266, 52.266, 52.266, 142776.848757096, 151.30780914245, 116.125179154279, 211.433589124682, 126.364659148389, -50043.7884725882, 0.00138383045498687, ]
  - [31100, -49601.6017180088, 456.700483239927, -49144.9012347689, 302.939955126389, 52.266, 52.266, 52.266, 142776.848757096, -450.322629661832, -246.85696056028, -707.635003418874, -396.475925006339, -50042.5498939251, 0.00144263158038501, ]
  - [31200, -49603.4828000984, 459.091878415481, -49144.390921683, 304.526222655673, 52.266, 52.266, 52.266, 142776.848757096, -395.239599545879, -340.184744895984, -262.761628481541, -582.772425260112, -50042.6641592079, 0.00150331662056234, ]
  - [31300, -49599.0469104118, 453.95626858883, -49145.0906418229, 301.119654308305, 52.266, 52.266, 52.266, 142776.848757096, -398.173052157415, -303.106562856388, -262.138315407611, -629.274278208249, -50053.2126298607, 0.00156592546949443, ]
  - [31400, -49597.720765956, 450.387098556717, -49147.3336673993, 298.752141575023, 52.266, 52.266, 52.266, 142776.848757096, -125.180469659269, -236.954547105173, 11.5108583952633, -150.097720267897, -50046.174901222, 0.00163049837566735, ]
  - [31500, -49599.5738184216, 453.236118002784, -49146.3377004188, 300.64196182882, 52.266, 52.266, 52.266, 142776.848757096, -190.454457179361, -282.469841060911, -309.407029705521, 20.5134992283486, -50047.4932475852, 0.00169707593755625, ]
  - [31600, -49594.9004875791, 450.06596910378, -49144.8345184753, 298.539129008511, 52.266, 52.266, 52.266, 142776.848757096, 632.834853850435, 545.019253283404, 670.189693818441, 683.295614449456, -50039.4774202668, 0.00176569909903396, ]
  - [31700, -49597.5248449365, 452.107840322227, -49145.4170046142, 299.893549242319, 52.266, 52.266, 52.266, 142776.848757096, 167.183883009603, 75.0717781684995, -38.9611196779788, 465.440990538289, -50038.1463284803, 0.0018364091447113, ]
  - [31800, -49596.0790826343, 459.893626466354, -49136.185456168, 305.058040613979, 52.266, 52.266, 52.266, 142776.848757096, 313.844736355461, 237.849066298073, 400.759210065671, 302.925932702639, -50033.6389954426, 0.00190924769521034, ]
  - [31900, -49595.8146527081, 454.878288389943, -49140.9363643181, 301.73125129019, 52.266, 52.266, 52.266, 142776.848757096, 228.982209020164, 385.232612529217, 81.6849945387734, 220.029019992503, -50044.5074385959, 0.00198425670237219, ]
  - [32000, -49596.8210954963, 455.584425084423, -49141.2366704119, 302.199648032452, 52.266, 52.266, 52.266, 142776.848757096, 135.433234769828, 220.249548157234, 100.379777542582, 85.6703786096683, -50049.712366588, 0.00206147844440064, ]
  - [32100, -49598.7993719528, 450.987114574736, -49147.8122573781, 299.150146027053, 52.266, 52.266, 52.266, 142776.848757096, 16.1999626824087, 134.564320380188, -32.4887980639635, -53.4756342689994, -50050.4724905932, 0.00214095552094305, ]
  - [32200, -49594.9708440391, 452.683633601244, -49142.2872104378, 300.275486193359, 52.266, 52.266, 52.266, 142776.848757096, 402.429957826674, 581.159562388006, 208.554815447149, 417.575495644866, -50048.6477259867, 0.00222273084810996, ]
[...]
  - [232500, -49592.6798147146, 455.781284916709, -49136.8985297979, 302.330229695812, 52.266, 52.266, 52.266, 142776.848757096, 604.761958382188, 1001.56686212081, 491.361542927842, 321.357470097911, -50046.5072268626, 0.000231150959815978, ]
  - [232600, -49599.2694695077, 458.277202775062, -49140.9922667327, 303.985829529306, 52.266, 52.266, 52.266, 142776.848757096, 172.64859827537, 147.732917140698, 189.642051835438, 180.570825849973, -50036.0541121421, 0.000216911211583102, ]
  - [232700, -49596.5361960547, 455.572881098767, -49140.963314956, 302.191990640737, 52.266, 52.266, 52.266, 142776.848757096, 431.748795255792, 504.06654898677, 718.180994110577, 72.9988426700291, -50034.4734701857, 0.000203362326959055, ]
  - [232800, -49597.059976845, 454.542802873205, -49142.5171739718, 301.508716015725, 52.266, 52.266, 52.266, 142776.848757096, 178.053449017604, -42.7349507963915, 268.203527452106, 308.691770397099, -50036.7024016767, 0.000190480389068545, ]
  - [232900, -49598.4446844244, 453.93749609401, -49144.5071883304, 301.107202079882, 52.266, 52.266, 52.266, 142776.848757096, 2.11224865088812, -11.302824163622, 240.207712170675, -222.568142054388, -50049.1192299091, 0.000178241940897418, ]
  - [233000, -49598.1066133229, 449.096484038038, -49149.0101292848, 297.896047222768, 52.266, 52.266, 52.266, 142776.848757096, 2.06348134039128, -185.920982699407, -26.2057919178422, 218.317218638425, -50041.1025876472, 0.000166623985720989, ]
  - [233100, -49597.256414096, 450.50397988086, -49146.7524342151, 298.829671650839, 52.266, 52.266, 52.266, 142776.848757096, 30.5344575984119, 116.03970264551, 89.4173687615671, -113.853698611842, -50046.2428843273, 0.000155603987394581, ]
  - [233200, -49595.7606984162, 453.085913444072, -49142.6747849721, 300.542327683585, 52.266, 52.266, 52.266, 142776.848757096, 376.516873981369, 552.901363954358, 347.680653816304, 228.968604173444, -50051.5847463998, 0.000145159870504403, ]
  - [233300, -49596.1818149898, 455.874062038346, -49140.3077529514, 302.391770898629, 52.266, 52.266, 52.266, 142776.848757096, 329.751508336934, 367.657072733987, 290.389068492058, 331.208383784757, -50048.6978433917, 0.000135270020376871, ]
  - [233400, -49597.8093592619, 454.536600018058, -49143.2727592438, 301.504601518962, 52.266, 52.266, 52.266, 142776.848757096, 6.45883174707484, 251.318124643582, -73.1842371977308, -158.757392204625, -50047.3248691871, 0.000125913282944476, ]
  - [233500, -49597.3482181751, 452.257949895329, -49145.0902682798, 299.99312038141, 52.266, 52.266, 52.266, 142776.848757096, -145.656598184801, -151.753287456235, -100.585638316507, -184.63086878166, -50055.7607460844, 0.000117068964466275, ]
  - [233600, -49602.1459626723, 451.101909525311, -49151.044053147, 299.226292163202, 52.266, 52.266, 52.266, 142776.848757096, -400.533569735201, -310.502058707447, -376.571185486607, -514.527465011551, -50046.6968483137, 0.000108716831101108, ]
  - [233700, -49594.7351467905, 450.158644911691, -49144.5765018788, 298.600603007598, 52.266, 52.266, 52.266, 142776.848757096, 383.488528408644, 246.111373969045, 401.853373472257, 502.500837784631, -50048.0952517783, 0.000100837108331576, ]
  - [233800, -49603.9894649816, 449.389104395597, -49154.600360586, 298.090149049328, 52.266, 52.266, 52.266, 142776.848757096, -807.906443832068, -820.888680713271, -620.936556166982, -981.89409461595, -50051.3634593921, 9.34104802368709e-05, ]
  - [233900, -49599.2784428407, 447.896624689978, -49151.3818181508, 297.100152866623, 52.266, 52.266, 52.266, 142776.848757096, -318.150237318726, -219.262672434927, -661.407897202499, -73.7801423187524, -50052.2368679575, 8.64180886124633e-05, ]
  - [234000, -49602.7205013933, 452.051724996345, -49150.6687763969, 299.856326653492, 52.266, 52.266, 52.266, 142776.848757096, -595.605644457598, -679.026731036819, -672.835078920318, -434.955123415657, -50043.7307673069, 7.98415319347196e-05, ]
  - [234100, -49603.8263693026, 453.865623781107, -49149.9607455215, 301.059527518447, 52.266, 52.266, 52.266, 142776.848757096, -651.907698674175, -618.623973302579, -709.328945640218, -627.770177079726, -50042.9803257934, 7.36628641684439e-05, ]
  - [234200, -49596.1087870706, 447.968528631533, -49148.1402584391, 297.147848408072, 52.266, 52.266, 52.266, 142776.848757096, 128.899942324448, 95.6875692277295, 123.118505754227, 167.89375199139, -50048.5634455225, 6.78645934153684e-05, ]
  - [234300, -49595.858265597, 455.591366324804, -49140.2668992722, 302.204252317157, 52.266, 52.266, 52.266, 142776.848757096, 69.6070466371059, 326.874753560129, -44.9614375538802, -73.0921760949296, -50048.5219683769, 6.24296804015905e-05, ]
  - [234400, -49596.3217340114, 455.730334787894, -49140.5913992235, 302.296433301231, 52.266, 52.266, 52.266, 142776.848757096, 355.68533944944, 285.387954701144, 524.073821582616, 257.594242064559, -50032.5394795347, 5.73415368019447e-05, ]
  - [234500, -49597.8754362293, 453.547194609501, -49144.3282416198, 300.848306110769, 52.266, 52.266, 52.266, 142776.848757096, -174.785511831676, -238.585647552004, -106.167640410824, -179.603247532198, -50041.6529674987, 5.25840233992875e-05, ]
  - [234600, -49593.6797582913, 455.585204767145, -49138.0945535242, 302.200165213969, 52.266, 52.266, 52.266, 142776.848757096, 641.056115280261, 596.899353454664, 569.287513502868, 756.981478883254, -50038.2799577262, 4.81414480766631e-05, ]
  - [234700, -49594.6463252745, 450.075507733549, -49144.570817541, 298.545456201453, 52.266, 52.266, 52.266, 142776.848757096, 419.938000778026, 254.651543343615, 325.948292131831, 679.214166858631, -50049.2628194641, 4.39985636403036e-05, ]
  - [234800, -49596.2272663592, 456.631039422867, -49139.5962269363, 302.89389144221, 52.266, 52.266, 52.266, 142776.848757096, 76.7874323520165, 83.037413635411, 12.0652715117648, 135.259611908876, -50048.2223026105, 4.01405654714093e-05, ]
  - [234900, -49596.647731567, 450.047499224606, -49146.6002323424, 298.526877512019, 52.266, 52.266, 52.266, 142776.848757096, 205.981183439657, 223.814398595367, 118.316584493954, 275.812567229652, -50051.0891010343, 3.65530890046418e-05, ]
  - [235000, -49592.3602587924, 445.778415341279, -49146.5818434511, 295.695095791818, 52.266, 52.266, 52.266, 142776.848757096, 681.662416338856, 855.593274501394, 358.016489714073, 831.377484801099, -50055.8108335452, 3.32222070312498e-05, ]
  - [235100, -49602.2914935113, 448.11325175341, -49154.1782417579, 297.243846589935, 52.266, 52.266, 52.266, 142776.848757096, -771.538709760053, -807.672036944834, -701.71902294179, -805.225069393533, -50058.7501455632, 3.01344268247407e-05, ]
  - [235200, -49601.1736701981, 451.863290093953, -49149.3103801041, 299.731333440282, 52.266, 52.266, 52.266, 142776.848757096, -322.059654508546, -279.337125045061, -660.784790088073, -26.0570483925044, -50058.5772313828, 2.72766870869938e-05, ]
  - [235300, -49596.72536468, 449.155411913882, -49147.5699527661, 297.935135440799, 52.266, 52.266, 52.266, 142776.848757096, -7.25958736760254, 222.198363272305, -153.185225826384, -90.791899548731, -50050.0428137229, 2.46363547127045e-05, ]
  - [235400, -49596.641519933, 456.735329635205, -49139.9061902978, 302.963069543406, 52.266, 52.266, 52.266, 142776.848757096, 96.8484447295038, -82.9615729076682, 210.269939274095, 163.236967822084, -50042.461218855, 2.22012213700348e-05, ]
  - [235500, -49598.2661831171, 452.849411422796, -49145.4167716943, 300.385450442719, 52.266, 52.266, 52.266, 142776.848757096, 67.1377525221702, -37.0814449100803, -152.406345661986, 390.901048138579, -50041.6063027972, 1.99594998953343e-05, ]
  - [235600, -49602.8184053227, 455.489460558756, -49147.328944764, 302.136655874134, 52.266, 52.266, 52.266, 142776.848757096, -696.55268841029, -565.002591637932, -713.318520364587, -811.336953228352, -50034.4554000456, 1.78998204997852e-05, ]
  - [235700, -49596.1084336588, 450.889857411541, -49145.2185762473, 299.085633109429, 52.266, 52.266, 52.266, 142776.848757096, 296.655596786459, 312.837025224106, 123.519316885102, 453.610448250166, -50044.7709495365, 1.6011226785813e-05, ]
  - [235800, -49595.5925427143, 451.473009843127, -49144.1195328711, 299.472451555959, 52.266, 52.266, 52.266, 142776.848757096, 354.182769298789, 397.774591992854, 329.394421686611, 335.379294216904, -50042.8252755873, 1.42831715710918e-05, ]
  - [235900, -49596.1584485674, 453.323991858001, -49142.8344567094, 300.700250582025, 52.266, 52.266, 52.266, 142776.848757096, 347.37813144562, 251.321194928861, 402.763205937263, 388.049993470736, -50043.4404160324, 1.27055125179639e-05, ]
  - [236000, -49595.560056174, 453.137050579216, -49142.4230055947, 300.576248123774, 52.266, 52.266, 52.266, 142776.848757096, 314.528135579294, 342.954172292844, 353.922024792445, 246.708209652596, -50060.3642710066, 1.12685075660799e-05, ]
  - [236100, -49598.7695962541, 449.97502433518, -49148.794571919, 298.47880324769, 52.266, 52.266, 52.266, 142776.848757096, -87.25415356293, -173.795909308083, -239.558279756154, 151.591728375446, -50063.7427345968, 9.96281016605479e-06, ]
  - [236200, -49596.7522263176, 454.465121453441, -49142.2871048641, 301.457188139839, 52.266, 52.266, 52.266, 142776.848757096, 191.150976199944, 206.374983945736, 334.002174301703, 33.0757703523966, -50069.3005193184, 8.77946431192305e-06, ]
  - [236300, -49597.0564693956, 448.639005688372, -49148.4174637072, 297.592591290915, 52.266, 52.266, 52.266, 142776.848757096, 177.893952719402, 290.630123026902, -19.3335547359221, 262.385289867227, -50056.0373216989, 7.70989937016554e-06, ]
  - [236400, -49600.4879114515, 452.979382570106, -49147.5085288813, 300.471663299896, 52.266, 52.266, 52.266, 142776.848757096, -238.573188001611, -251.513237916521, -187.838438700125, -276.367887388189, -50058.8721992152, 6.74592470306788e-06, ]
  - [236500, -49598.4029148086, 452.386990666329, -49146.0159241423, 300.078716098539, 52.266, 52.266, 52.266, 142776.848757096, 20.7941581671234, 263.038551074477, -104.776979063875, -95.8790975092312, -50060.996458895, 5.87972408415909e-06, ]
  - [236600, -49598.6065258579, 456.448957740899, -49142.157568117, 302.773112466516, 52.266, 52.266, 52.266, 142776.848757096, 90.3488359355127, 65.1084337887836, 19.7064815327615, 186.231592484992, -50059.3712106304, 5.10384990346715e-06, ]
  - [236700, -49602.3320115231, 455.369739921542, -49146.9622716016, 302.057242416526, 52.266, 52.266, 52.266, 142776.848757096, -702.642693224698, -525.306914965035, -824.262677316409, -758.35848739265, -50059.6362681813, 4.41121716031669e-06, ]
  - [236800, -49595.0173434619, 448.217147831839, -49146.8001956301, 297.312763253026, 52.266, 52.266, 52.266, 142776.848757096, 171.845078915432, 178.562689649609, 282.894595608601, 54.0779514880882, -50057.7475991901, 3.79509724138197e-06, ]
  - [236900, -49597.3677155774, 449.138198161738, -49148.2295174156, 297.923717162313, 52.266, 52.266, 52.266, 142776.848757096, -311.215304126874, -172.15564452265, -296.351965228545, -465.138302629425, -50062.9082974648, 3.24911148169665e-06, ]
  - [237000, -49597.5347025099, 454.460577103353, -49143.0741254065, 301.454173767702, 52.266, 52.266, 52.266, 142776.848757096, -59.1439063727894, -157.961288702145, 148.135954691166, -167.60638510739, -50057.362551397, 2.76722450630996e-06, ]
  - [237100, -49599.1410655371, 451.15602897913, -49147.985036558, 299.262190844095, 52.266, 52.266, 52.266, 142776.848757096, 112.151744755607, 204.388377022486, -41.1369708388154, 173.203828083151, -50050.9003574695, 2.34373735026696e-06, ]
  - [237200, -49594.5080387143, 452.850965014581, -49141.6570736997, 300.386480975953, 52.266, 52.266, 52.266, 142776.848757096, 316.383693159641, 197.21343161716, 355.940993665573, 395.99665419619, -50054.7079655355, 1.97328035457889e-06, ]
  - [237300, -49597.6852618579, 454.281700567284, -49143.4035612906, 301.335520839144, 52.266, 52.266, 52.266, 142776.848757096, 262.441645372165, 319.547155766623, 99.6806560610837, 368.097124288789, -50042.3950987984, 1.65080583583743e-06, ]
  - [237400, -49599.5323934074, 453.867256858114, -49145.6651365493, 301.06061077606, 52.266, 52.266, 52.266, 142776.848757096, -227.822213862356, -515.159955522559, 6.45872639951078, -174.765412464019, -50045.9088230949, 1.37158052711493e-06, ]
  - [237500, -49599.1176547975, 451.170909138771, -49147.9467456588, 299.272061196895, 52.266, 52.266, 52.266, 142776.848757096, -209.998682378065, -288.656568915841, 8.47705867964551, -349.816536897999, -50053.8193340007, 1.13117778778074e-06, ]
  - [237600, -49596.9718556029, 455.339157426014, -49141.6326981769, 302.036956342473, 52.266, 52.266, 52.266, 142776.848757096, 399.109406462813, 409.93992263466, 326.995581558102, 460.39271519568, -50047.0659844322, 9.25469579851505e-07, ]
  - [237700, -49597.8969366736, 451.567394453866, -49146.3295422198, 299.535059043342, 52.266, 52.266, 52.266, 142776.848757096, -59.631999225522, -195.502388082324, 79.706000867731, -63.0996104619684, -50050.6160261847, 7.50618208481688e-07, ]
  - [237800, -49602.0175677189, 460.192868834477, -49141.8246988844, 305.25653497275, 52.266, 52.266, 52.266, 142776.848757096, -265.986523123831, -228.196271917294, -96.3278354755076, -473.435461978691, -50037.9167387381, 6.03067824188189e-07, ]
  - [237900, -49600.4463231882, 452.015191412476, -49148.4311317758, 299.832093085401, 52.266, 52.266, 52.266, 142776.848757096, -311.059586425321, -170.06166091019, -186.367563742469, -576.749534623302, -50039.993159536, 4.79535684391034e-07, ]
  - [238000, -49604.0463835997, 449.191881886021, -49154.8545017137, 297.959326813763, 52.266, 52.266, 52.266, 142776.848757096, -850.040113387537, -930.675810761405, -671.122707311541, -948.321822089665, -50043.1136587813, 3.77003171839991e-07, ]
  - [238100, -49598.85619977, 451.544573793043, -49147.3116259769, 299.51992157312, 52.266, 52.266, 52.266, 142776.848757096, -215.234542388612, -431.388634328314, -150.546383320379, -63.7686095171455, -50049.5107011259, 2.92706567484834e-07, ]
  - [238200, -49596.6900645395, 453.382572622126, -49143.3074919173, 300.739108552855, 52.266, 52.266, 52.266, 142776.848757096, 243.415793165641, 317.53841920504, 147.082139206486, 265.626821085399, -50054.5839888408, 2.24127575334843e-07, ]
  - [238300, -49598.737244615, 448.689518237115, -49150.0477263779, 297.62609742855, 52.266, 52.266, 52.266, 142776.848757096, -74.0171870923335, -146.16693950179, 35.3252493659528, -111.209871141166, -50060.0982082133, 1.68983596840973e-07, ]
  - [238400, -49597.530290484, 452.529023758344, -49145.0012667256, 300.172929921604, 52.266, 52.266, 52.266, 142776.848757096, 154.972619036971, -47.5961131927957, 431.339317428221, 81.1746528754879, -50042.1922242371, 1.25217752321901e-07, ]
  - [238500, -49597.1962745855, 458.895447968852, -49138.3008266166, 304.395925813713, 52.266, 52.266, 52.266, 142776.848757096, 144.833204432715, 216.083342730803, 233.252445233387, -14.8361746660449, -50054.0428337295, 9.09886469429854e-08, ]
  - [238600, -49597.1850749369, 449.848302018319, -49147.3367729186, 298.394745414619, 52.266, 52.266, 52.266, 142776.848757096, 274.992394141382, 224.088155554569, 284.112062237341, 316.776964632238, -50061.6679121644, 6.46598787448784e-08, ]
  - [238700, -49595.175048596, 450.472255847698, -49144.7027927483, 298.808628368567, 52.266, 52.266, 52.266, 142776.848757096, 496.817459296993, 520.195627818773, 402.835987762462, 567.420762309743, -50048.4348568825, 4.47892862063161e-08, ]
  - [238800, -49601.8001462115, 449.771658270954, -49152.0284879406, 298.343905850749, 52.266, 52.266, 52.266, 142776.848757096, -682.74631027173, -785.476941397437, -538.350003032227, -724.411986385527, -50041.3127737022, 3.01179328132691e-08, ]
  - [238900, -49602.0209155723, 456.907611975341, -49145.113303597, 303.077348389839, 52.266, 52.266, 52.266, 142776.848757096, -512.540665859628, -464.590866902659, -456.227952077326, -616.803178598898, -50044.9527211114, 1.95588260943479e-08, ]
  - [239000, -49598.9211779049, 448.017729145518, -49150.9034487594, 297.180484242816, 52.266, 52.266, 52.266, 142776.848757096, -41.1196554855239, -41.8730887116887, -46.1725151382356, -35.3133626066455, -50046.7306267329, 1.21853685699994e-08, ]
  - [239100, -49594.6011800993, 447.976213005776, -49146.6249670935, 297.152945630592, 52.266, 52.266, 52.266, 142776.848757096, 304.011671779312, 203.669681632683, 307.697589419528, 400.667744285726, -50052.2914602206, 7.21953805066191e-09, ]
  - [239200, -49594.0614508148, 455.196954351229, -49138.8644964636, 301.94262976592, 52.266, 52.266, 52.266, 142776.848757096, 755.942402317962, 793.398405311637, 703.194566835043, 771.234234807207, -50051.8563822111, 4.01979470665194e-09, ]
  - [239300, -49593.6189767522, 448.812811658877, -49144.8061650933, 297.707880796483, 52.266, 52.266, 52.266, 142776.848757096, 560.15591111865, 424.556594201889, 628.533463248572, 627.377675905488, -50047.5237645897, 2.06871232013228e-09, ]
  - [239400, -49596.8896729843, 451.349227185724, -49145.5404457986, 299.390343666752, 52.266, 52.266, 52.266, 142776.848757096, -28.1071175038733, -179.796329969953, -128.214390692171, 223.689368150502, -50042.5646739649, 9.60331117066315e-10, ]
  - [239500, -49597.1789238578, 452.253801600608, -49144.9251222572, 299.990368721924, 52.266, 52.266, 52.266, 142776.848757096, -81.1218815184394, -87.5671130736771, -126.495993596954, -29.3025378846883, -50047.214964121, 3.87229564589803e-10, ]
  - [239600, -49601.4982812536, 451.924321678412, -49149.5739595751, 299.771817096717, 52.266, 52.266, 52.266, 142776.848757096, -367.279191043219, -523.696615344151, -271.336773496548, -306.80418428896, -50042.9630823657, 1.27312506734493e-10, ]
  - [239700, -49599.0697072288, 448.208004830783, -49150.861702398, 297.306698489727, 52.266, 52.266, 52.266, 142776.848757096, -85.3318295775025, -65.4885545089141, -180.342035152928, -10.1648990706647, -50048.6605517272, 3.03129989146573e-11, ]
  - [239800, -49596.3684505381, 452.685143369017, -49143.6833071691, 300.276487657116, 52.266, 52.266, 52.266, 142776.848757096, 361.059254283551, 414.942214231899, 109.863630851372, 558.371917767382, -50053.5053864661, 4.00518903939475e-12, ]
  - [239900, -49601.1368529171, 455.204986780431, -49145.9318661366, 301.947957861315, 52.266, 52.266, 52.266, 142776.848757096, -496.090711924534, -420.628225287057, -671.032283821204, -396.611626665342, -50047.4670811078, 1.25580539685001e-13, ]
  - [240000, -49595.5417091727, 458.457656110745, -49137.084053062, 304.105528385384, 52.266, 52.266, 52.266, 142776.848757096, 575.642509742111, 640.158219682888, 641.284028896826, 445.48528064662, -50044.6453640454, 0, ]
...
Loop time of 120.931 on 64 procs for 100000 steps with 11664 atoms

Performance: 71.446 ns/day, 0.336 hours/ns, 826.919 timesteps/s, 9.645 Matom-step/s
68.5% CPU use with 64 MPI tasks x 1 OpenMP threads

MPI task timing breakdown:
Section |  min time  |  avg time  |  max time  |%varavg| %total
---------------------------------------------------------------
Pair    | 54.741     | 56.913     | 59.224     |  13.0 | 47.06
Neigh   | 0          | 0          | 0          |   0.0 |  0.00
Comm    | 16.557     | 18.715     | 20.953     |  22.7 | 15.48
Output  | 0.3566     | 0.40031    | 0.40154    |   0.9 |  0.33
Modify  | 14.782     | 15.745     | 43.588     |  88.6 | 13.02
Other   |            | 29.16      |            |       | 24.11

Nlocal:         182.25 ave         194 max         173 min
Histogram: 2 4 14 9 9 11 10 3 0 2
Nghost:        1275.75 ave        1285 max        1264 min
Histogram: 2 0 3 10 11 9 9 14 4 2
Neighs:        7979.14 ave        8516 max        7530 min
Histogram: 1 2 13 12 9 12 6 6 2 1

Total # of neighbors = 510665
Ave neighs/atom = 43.781293
Neighbor list builds = 0
Dangerous builds = 0
#------------------------------------------------------------------------------#
Total wall time: 0:04:43
