LAMMPS (2 Aug 2023)
OMP_NUM_THREADS environment is not set. Defaulting to 1 thread. (src/comm.cpp:98)
  using 1 OpenMP thread(s) per MPI task
#--------------------------- Simulation variables -----------------------------#
# Initalizes the random number generator.
variable RND equal round(random(0,999,${RANDOM}))
variable RND equal round(random(0,999,1))

# Simulation control parameters.
variable t_eq equal 20000 # Equilibration time.
variable t equal 100000 # Switching time.

#---------------------------- Atomic setup ------------------------------------#
units            metal
# Create atoms.
lattice          bcc ${a}
lattice          bcc 2.94835
Lattice spacing in x,y,z = 2.94835 2.94835 2.94835
region           sim_box block 0 18 0 18 0 18
create_box       1 sim_box
Created orthogonal box = (0 0 0) to (53.0703 53.0703 53.0703)
  4 by 4 by 4 MPI processor grid
create_atoms     1 box
Created 11664 atoms
  using lattice units in orthogonal box = (0 0 0) to (53.0703 53.0703 53.0703)
  create_atoms CPU = 0.002 seconds

# Define interatomic potential.
pair_style       eam
pair_coeff       * * ../Fe.eam
#----------------------------- Run simulation ---------------------------------#
# Initial temperature to accelerate equilibration.
velocity all create ${T} ${RND} mom yes rot yes dist gaussian
velocity all create 1000 ${RND} mom yes rot yes dist gaussian
velocity all create 1000 80 mom yes rot yes dist gaussian

# Integrator, Frenkel-Ladd modifier, and thermostat.
fix fe all nve
fix fti all ti/spring ${k} ${t} ${t_eq} function 2
fix fti all ti/spring 3.4770445102588416 ${t} ${t_eq} function 2
fix fti all ti/spring 3.4770445102588416 100000 ${t_eq} function 2
fix fti all ti/spring 3.4770445102588416 100000 20000 function 2
fix ft all langevin ${T} ${T} 0.1 ${RND} zero yes
fix ft all langevin 1000 ${T} 0.1 ${RND} zero yes
fix ft all langevin 1000 1000 0.1 ${RND} zero yes
fix ft all langevin 1000 1000 0.1 178 zero yes
compute tcom all temp/com
fix_modify ft temp tcom

# Setup thermo output.
variable dE equal pe-f_fti
variable lambda equal f_fti[1]

thermo_style custom step pe ke etotal temp lx ly lz vol press pxx pyy pzz v_dE v_lambda
thermo 100
thermo_modify line yaml
thermo_modify flush yes

# Forward integration.
run ${t_eq}
run 20000

CITE-CITE-CITE-CITE-CITE-CITE-CITE-CITE-CITE-CITE-CITE-CITE-CITE

Your simulation uses code contributions which should be cited:

- ti/spring command: doi:10.1016/j.commatsci.2015.10.050

@article{freitas2016,
  author={Freitas, Rodrigo and Asta, Mark and de Koning, Maurice},
  title={Nonequilibrium Free-Energy Calculation of Solids Using {LAMMPS}},
  journal={Computational Materials Science},
  volume={112},
  pages={333--341},
  year={2016},
  publisher={Elsevier}
}

CITE-CITE-CITE-CITE-CITE-CITE-CITE-CITE-CITE-CITE-CITE-CITE-CITE

Neighbor list info ...
  update: every = 1 steps, delay = 0 steps, check = yes
  max neighbors/atom: 2000, page size: 100000
  master list distance cutoff = 6.409104
  ghost atom cutoff = 6.409104
  binsize = 3.204552, bins = 17 17 17
  1 neighbor lists, perpetual/occasional/extra = 1 0 0
  (1) pair eam, perpetual
      attributes: half, newton on
      pair build: half/bin/atomonly/newton
      stencil: half/bin/3d
      bin: standard
Per MPI rank memory allocation (min/avg/max) = 3.736 | 3.736 | 3.736 Mbytes
---
keywords: ['Step', 'PotEng', 'KinEng', 'TotEng', 'Temp', 'Lx', 'Ly', 'Lz', 'Volume', 'Press', 'Pxx', 'Pyy', 'Pzz', 'v_dE', 'v_lambda', ]
data:
  - [0, -49581.0942276029, 1507.561071135, -48073.5331564679, 1000, 53.0703, 53.0703, 53.0703, 149470.204239739, -118420.174537262, -118303.630229397, -118494.361345521, -118462.532036869, -49581.0942276029, 0, ]
  - [100, -48636.35297984, 1260.96750463266, -47375.3854752074, 836.428804627672, 53.0703, 53.0703, 53.0703, 149470.204239739, -16694.9035386822, -17513.485147789, -15947.3955902976, -16623.82987796, -48636.35297984, 0, ]
  - [200, -48544.5205146988, 1426.71298115976, -47117.807533539, 946.371598787459, 53.0703, 53.0703, 53.0703, 149470.204239739, -6714.48639853643, -6510.88269749507, -7030.86778576396, -6601.70871235025, -48544.5205146988, 0, ]
  - [300, -48484.3424670376, 1469.22488474088, -47015.1175822967, 974.570724113184, 53.0703, 53.0703, 53.0703, 149470.204239739, -371.741686497234, -1230.18950496483, -354.262335724235, 469.226781197358, -48484.3424670376, 0, ]
  - [400, -48478.6916575953, 1493.80896036044, -46984.8826972349, 990.877908007926, 53.0703, 53.0703, 53.0703, 149470.204239739, -495.997883331692, -774.53292795148, -366.925664523007, -346.535057520587, -48478.6916575953, 0, ]
  - [500, -48479.4992215584, 1492.82169697506, -46986.6775245834, 990.223033453067, 53.0703, 53.0703, 53.0703, 149470.204239739, -433.583055339783, -670.447781320971, -186.334223571432, -443.967161126943, -48479.4992215584, 0, ]
  - [600, -48462.5625898744, 1511.64525695108, -46950.9173329233, 1002.70913457125, 53.0703, 53.0703, 53.0703, 149470.204239739, 2247.25149302499, 2095.80810179325, 2492.43045442236, 2153.51592285937, -48462.5625898744, 0, ]
  - [700, -48462.9843955507, 1496.76925274174, -46966.215142809, 992.841538163935, 53.0703, 53.0703, 53.0703, 149470.204239739, 1474.67999588599, 964.853417625607, 1306.60222776643, 2152.58434226594, -48462.9843955507, 0, ]
  - [800, -48475.0522793624, 1504.9922966039, -46970.0599827585, 998.2960726565, 53.0703, 53.0703, 53.0703, 149470.204239739, 77.6144686003243, -21.9241342575702, 177.427879880331, 77.3396601782174, -48475.0522793624, 0, ]
  - [900, -48471.5874996603, 1512.25565277173, -46959.3318468885, 1003.11402418557, 53.0703, 53.0703, 53.0703, 149470.204239739, 570.862429576891, 427.013375268697, 512.193893694249, 773.380019767728, -48471.5874996603, 0, ]
  - [1000, -48474.3083075618, 1525.78903694954, -46948.5192706123, 1012.09102978549, 53.0703, 53.0703, 53.0703, 149470.204239739, 102.332698096587, 17.590113087189, -554.529429544679, 843.937410747256, -48474.3083075618, 0, ]
  - [1100, -48473.3729479319, 1529.09474645106, -46944.2782014808, 1014.28378307743, 53.0703, 53.0703, 53.0703, 149470.204239739, 209.916742010209, 100.892138592787, 294.11493680491, 234.743150632927, -48473.3729479319, 0, ]
  - [1200, -48462.7404835511, 1484.91790848074, -46977.8225750703, 984.980268403179, 53.0703, 53.0703, 53.0703, 149470.204239739, 1330.97876391409, 1545.86869130751, 1357.32070022914, 1089.74690020562, -48462.7404835511, 0, ]
  - [1300, -48473.4641024532, 1508.0568387358, -46965.4072637174, 1000.3288540745, 53.0703, 53.0703, 53.0703, 149470.204239739, 151.085161776053, 392.199344340856, 65.4036751701643, -4.34753418285878, -48473.4641024532, 0, ]
  - [1400, -48490.5796314154, 1497.05774317883, -46993.5218882366, 993.032900519071, 53.0703, 53.0703, 53.0703, 149470.204239739, -1820.7328678564, -2262.45982634658, -881.331192490785, -2318.40758473184, -48490.5796314154, 0, ]
  - [1500, -48485.0597313149, 1486.05604956903, -46999.0036817459, 985.735223615333, 53.0703, 53.0703, 53.0703, 149470.204239739, -984.438873565799, -955.288907030855, -1635.9008185483, -362.12689511824, -48485.0597313149, 0, ]
  - [1600, -48496.6428170139, 1497.2051359268, -46999.4376810871, 993.130669525446, 53.0703, 53.0703, 53.0703, 149470.204239739, -1416.44635138632, -1349.78971458597, -2087.62583825429, -811.923501318693, -48496.6428170139, 0, ]
  - [1700, -48489.9018681542, 1507.55327649912, -46982.3485916551, 999.994829638392, 53.0703, 53.0703, 53.0703, 149470.204239739, -950.280686712249, -1464.58150005496, -817.213851357634, -569.046708724154, -48489.9018681542, 0, ]
  - [1800, -48491.6924284208, 1499.41846130459, -46992.2739671162, 994.598819254284, 53.0703, 53.0703, 53.0703, 149470.204239739, -1086.78504788233, -1694.44546190222, -678.660833473484, -887.248848271292, -48491.6924284208, 0, ]
  - [1900, -48489.5962046054, 1486.8607957953, -47002.7354088101, 986.269030332473, 53.0703, 53.0703, 53.0703, 149470.204239739, -1627.55612241705, -708.730678381331, -2178.68148315726, -1995.25620571254, -48489.5962046054, 0, ]
  - [2000, -48485.4181197441, 1506.09950300934, -46979.3186167347, 999.030508180634, 53.0703, 53.0703, 53.0703, 149470.204239739, -520.361054778748, -280.157594847524, -674.722418866849, -606.203150621869, -48485.4181197441, 0, ]
  - [2100, -48489.4854177969, 1516.20028923959, -46973.2851285573, 1005.73059245825, 53.0703, 53.0703, 53.0703, 149470.204239739, -1023.66278551724, -670.050264354976, -661.450472771923, -1739.48761942483, -48489.4854177969, 0, ]
  - [2200, -48490.170461614, 1505.72218680819, -46984.4482748058, 998.780225649216, 53.0703, 53.0703, 53.0703, 149470.204239739, -1249.31060610196, -1346.6584639052, -688.74090614533, -1712.53244825536, -48490.170461614, 0, ]
  - [2300, -48477.1665635416, 1504.10272239968, -46973.0638411419, 997.705997586741, 53.0703, 53.0703, 53.0703, 149470.204239739, -154.946230636372, 586.958342657862, -719.517077262583, -332.279957304392, -48477.1665635416, 0, ]
  - [2400, -48483.7289056798, 1488.92081416137, -46994.8080915184, 987.635487987498, 53.0703, 53.0703, 53.0703, 149470.204239739, -781.167358692914, -533.181849147126, -398.323046373104, -1411.99718055851, -48483.7289056798, 0, ]
  - [2500, -48487.489866245, 1533.67085165242, -46953.8190145926, 1017.31921911313, 53.0703, 53.0703, 53.0703, 149470.204239739, -950.192482016475, -1348.58057843311, -884.418723037921, -617.578144578389, -48487.489866245, 0, ]
  - [2600, -48480.6464812599, 1508.475142784, -46972.1713384759, 1000.60632478943, 53.0703, 53.0703, 53.0703, 149470.204239739, -160.255991295706, -201.311916110921, -551.104146059273, 271.648088283076, -48480.6464812599, 0, ]
  - [2700, -48488.3835129974, 1507.43069906396, -46980.9528139334, 999.913521200875, 53.0703, 53.0703, 53.0703, 149470.204239739, -1141.00320278191, -1135.22251906362, -1217.18956284962, -1070.59752643249, -48488.3835129974, 0, ]
  - [2800, -48478.5964949061, 1489.80623579389, -46988.7902591122, 988.222808560757, 53.0703, 53.0703, 53.0703, 149470.204239739, 212.931097244532, 561.312350449473, -286.030442903909, 363.511384188024, -48478.5964949061, 0, ]
  - [2900, -48475.9835718697, 1483.43242036609, -46992.5511515036, 983.994909903885, 53.0703, 53.0703, 53.0703, 149470.204239739, -353.565228414887, -593.985252143659, -763.808976579015, 297.098543478011, -48475.9835718697, 0, ]
  - [3000, -48470.2812394597, 1497.14898944446, -46973.1322500152, 993.093426269823, 53.0703, 53.0703, 53.0703, 149470.204239739, 741.678848511386, -149.786050065072, 1187.24509767195, 1187.57749792728, -48470.2812394597, 0, ]
  - [3100, -48476.4179515612, 1514.86725231274, -46961.5506992484, 1004.84635834503, 53.0703, 53.0703, 53.0703, 149470.204239739, 165.131389933514, -928.99552282691, 436.941242744324, 987.448449883132, -48476.4179515612, 0, ]
  - [3200, -48460.0387089998, 1522.49383833511, -46937.5448706646, 1009.90524860719, 53.0703, 53.0703, 53.0703, 149470.204239739, 1521.28621770409, 509.085531171396, 1713.89119031485, 2340.88193162601, -48460.0387089998, 0, ]
  - [3300, -48491.3656041942, 1519.47588486054, -46971.8897193337, 1007.90337051922, 53.0703, 53.0703, 53.0703, 149470.204239739, -1190.75171585261, -1163.7331277821, -1698.80861541227, -709.713404363465, -48491.3656041942, 0, ]
  - [3400, -48473.6992732974, 1513.94354203791, -46959.7557312595, 1004.23364003297, 53.0703, 53.0703, 53.0703, 149470.204239739, 469.552981004096, 301.138317890163, 1141.44558826273, -33.9249631405991, -48473.6992732974, 0, ]
  - [3500, -48463.3503724966, 1519.64403544382, -46943.7063370527, 1008.01490867612, 53.0703, 53.0703, 53.0703, 149470.204239739, 1379.11940676521, 766.23779921709, 1325.03539931208, 2046.08502176646, -48463.3503724966, 0, ]
  - [3600, -48473.4075346115, 1517.16554071047, -46956.2419939011, 1006.37086600296, 53.0703, 53.0703, 53.0703, 149470.204239739, 413.193813138179, 443.53335946077, 806.358340805348, -10.3102608515887, -48473.4075346115, 0, ]
  - [3700, -48465.1948862113, 1508.65142680194, -46956.5434594094, 1000.72325804096, 53.0703, 53.0703, 53.0703, 149470.204239739, 1215.39431541823, 861.070581432027, 1229.0763262154, 1556.03603860728, -48465.1948862113, 0, ]
  - [3800, -48467.8997697874, 1502.18646611351, -46965.7133036739, 996.434900632291, 53.0703, 53.0703, 53.0703, 149470.204239739, 841.556512511835, 617.84346368868, 1214.84403795378, 691.98203589304, -48467.8997697874, 0, ]
  - [3900, -48480.7264675735, 1511.79166628712, -46968.9348012863, 1002.80625125782, 53.0703, 53.0703, 53.0703, 149470.204239739, -451.015866952249, -260.208763830547, -962.213613800187, -130.625223226022, -48480.7264675735, 0, ]
  - [4000, -48470.4346051781, 1515.58203699032, -46954.8525681878, 1005.32049149377, 53.0703, 53.0703, 53.0703, 149470.204239739, 631.305493976341, 805.833213320297, 356.201645051472, 731.881623557262, -48470.4346051781, 0, ]
  - [4100, -48476.0839288309, 1510.70964916173, -46965.3742796692, 1002.08852436363, 53.0703, 53.0703, 53.0703, 149470.204239739, -395.708264722973, -596.67670714462, -525.096239241059, -65.3518477832419, -48476.0839288309, 0, ]
  - [4200, -48484.6958537013, 1520.36306590058, -46964.3327878007, 1008.49185814804, 53.0703, 53.0703, 53.0703, 149470.204239739, -989.019109253313, -546.061568040568, -834.400328825758, -1586.59543089362, -48484.6958537013, 0, ]
  - [4300, -48479.7580210668, 1518.11990559254, -46961.6381154743, 1007.00391822242, 53.0703, 53.0703, 53.0703, 149470.204239739, 255.51753650787, 78.8526768372229, 335.875197081172, 351.824735605207, -48479.7580210668, 0, ]
  - [4400, -48476.1215742903, 1508.19857109646, -46967.9230031938, 1000.42286841553, 53.0703, 53.0703, 53.0703, 149470.204239739, 86.2052737115513, -197.418615717114, 191.290681303996, 264.743755547764, -48476.1215742903, 0, ]
  - [4500, -48480.9855249474, 1511.0057532022, -46969.9797717452, 1002.28493699735, 53.0703, 53.0703, 53.0703, 149470.204239739, -538.169629317165, -354.855150556615, -356.677215346716, -902.976522048155, -48480.9855249474, 0, ]
  - [4600, -48472.5779167375, 1487.49529429529, -46985.0826224422, 986.689907809437, 53.0703, 53.0703, 53.0703, 149470.204239739, 57.144457658746, -523.864893448117, 400.641283360401, 294.656983063953, -48472.5779167375, 0, ]
  - [4700, -48480.2307580553, 1505.37824837428, -46974.8525096811, 998.552083359996, 53.0703, 53.0703, 53.0703, 149470.204239739, -427.576533147167, -656.37653719716, -344.57726098083, -281.775801263512, -48480.2307580553, 0, ]
  - [4800, -48465.4763848979, 1512.4716737731, -46953.0047111248, 1003.25731589394, 53.0703, 53.0703, 53.0703, 149470.204239739, 832.008948526507, 1198.78607017282, 1013.7123005561, 283.528474850593, -48465.4763848979, 0, ]
  - [4900, -48474.4716880301, 1521.86198851627, -46952.6096995138, 1009.48612806147, 53.0703, 53.0703, 53.0703, 149470.204239739, -7.80920457389928, 464.157209891645, -16.4746058844869, -471.110217728856, -48474.4716880301, 0, ]
  - [5000, -48483.3709056436, 1529.08070238263, -46954.2902032609, 1014.27446732319, 53.0703, 53.0703, 53.0703, 149470.204239739, -591.921822217173, -547.225333787443, -978.800970024518, -249.739162839557, -48483.3709056436, 0, ]
  - [5100, -48484.4371717595, 1504.90919804087, -46979.5279737187, 998.24095146465, 53.0703, 53.0703, 53.0703, 149470.204239739, -646.450942689779, -1456.04302717468, -332.946025670916, -150.363775223744, -48484.4371717595, 0, ]
  - [5200, -48473.576263506, 1517.9350421569, -46955.6412213491, 1006.88129404541, 53.0703, 53.0703, 53.0703, 149470.204239739, 948.024784382802, 997.667749344749, 970.48718913851, 875.919414665145, -48473.576263506, 0, ]
  - [5300, -48487.5276938489, 1503.70273373103, -46983.8249601178, 997.440675885144, 53.0703, 53.0703, 53.0703, 149470.204239739, -1468.37699084094, -1673.35949557588, -1052.8279192076, -1678.94355773934, -48487.5276938489, 0, ]
  - [5400, -48479.7223108359, 1494.73761235988, -46984.984698476, 991.493904279804, 53.0703, 53.0703, 53.0703, 149470.204239739, -420.641990052092, -866.930287177129, 150.603180668037, -545.59886364718, -48479.7223108359, 0, ]
  - [5500, -48473.8811390079, 1510.11589130053, -46963.7652477073, 1001.69467109124, 53.0703, 53.0703, 53.0703, 149470.204239739, 256.324811055811, 642.308307601412, 47.1911623498926, 79.4749632161339, -48473.8811390079, 0, ]
  - [5600, -48469.206330203, 1524.29103979155, -46944.9152904114, 1011.09737374948, 53.0703, 53.0703, 53.0703, 149470.204239739, 1339.48220466579, 1058.17334510054, 1557.3626216857, 1402.91064721114, -48469.206330203, 0, ]
  - [5700, -48494.2138128455, 1501.29679021642, -46992.9170226291, 995.844758107303, 53.0703, 53.0703, 53.0703, 149470.204239739, -1778.15000096021, -1629.82717299518, -2273.64273497146, -1430.98009491399, -48494.2138128455, 0, ]
  - [5800, -48468.1343235584, 1483.32289097656, -46984.8114325819, 983.922256535724, 53.0703, 53.0703, 53.0703, 149470.204239739, 690.216782425414, 1258.37808461382, 249.860891685203, 562.411370977218, -48468.1343235584, 0, ]
  - [5900, -48475.6393682525, 1506.71885787831, -46968.9205103742, 999.441340538161, 53.0703, 53.0703, 53.0703, 149470.204239739, 525.146087985227, 80.8171325014478, 1044.86608454031, 449.755046913925, -48475.6393682525, 0, ]
  - [6000, -48485.735427924, 1521.01357677695, -46964.721851147, 1008.92335700326, 53.0703, 53.0703, 53.0703, 149470.204239739, -959.670779826564, -1016.37171252924, -913.69220231972, -948.948424630733, -48485.735427924, 0, ]
  - [6100, -48472.0598418, 1511.77011541504, -46960.289726385, 1002.79195606774, 53.0703, 53.0703, 53.0703, 149470.204239739, 1065.37188325275, 722.38134351242, 1336.774604908, 1136.95970133782, -48472.0598418, 0, ]
  - [6200, -48488.5074720759, 1479.93148568861, -47008.5759863873, 981.672659253803, 53.0703, 53.0703, 53.0703, 149470.204239739, -1596.37900322811, -1394.84845224605, -1666.5080013539, -1727.78055608437, -48488.5074720759, 0, ]
  - [6300, -48490.7461942078, 1518.93370560466, -46971.8124886031, 1007.54373052436, 53.0703, 53.0703, 53.0703, 149470.204239739, -1184.79384741814, -1583.1736637405, -1279.49030257124, -691.717575942669, -48490.7461942078, 0, ]
  - [6400, -48483.8628601176, 1493.36715932427, -46990.4957007933, 990.5848511994, 53.0703, 53.0703, 53.0703, 149470.204239739, -656.35635866399, -269.722589514066, -587.55324038362, -1111.79324609428, -48483.8628601176, 0, ]
  - [6500, -48455.9788350321, 1524.55545785953, -46931.4233771726, 1011.27276834745, 53.0703, 53.0703, 53.0703, 149470.204239739, 1626.27079226632, 1893.70846390613, 1594.85042603842, 1390.2534868544, -48455.9788350321, 0, ]
  - [6600, -48470.9015776781, 1538.89165464559, -46932.0099230325, 1020.78229805112, 53.0703, 53.0703, 53.0703, 149470.204239739, 1099.38479394177, 1337.95236028803, 1381.12800878317, 579.074012754121, -48470.9015776781, 0, ]
  - [6700, -48450.9470182413, 1534.49272538328, -46916.454292858, 1017.86438689877, 53.0703, 53.0703, 53.0703, 149470.204239739, 2034.19844810385, 2672.38892390709, 2015.00690945092, 1415.19951095352, -48450.9470182413, 0, ]
  - [6800, -48458.0043149973, 1503.95214105671, -46954.0521739406, 997.606113511825, 53.0703, 53.0703, 53.0703, 149470.204239739, 1643.65084805501, 1481.62841565994, 1486.34069388747, 1962.98343461763, -48458.0043149973, 0, ]
  - [6900, -48461.5623389079, 1508.80638586121, -46952.7559530466, 1000.82604595598, 53.0703, 53.0703, 53.0703, 149470.204239739, 1577.26227408551, 1458.96021555732, 1128.91283009754, 2143.91377660168, -48461.5623389079, 0, ]
  - [7000, -48473.2471839579, 1515.06086143724, -46958.1863225207, 1004.97478373901, 53.0703, 53.0703, 53.0703, 149470.204239739, 201.505103537116, 572.039914867998, -786.360225954425, 818.835621697773, -48473.2471839579, 0, ]
  - [7100, -48478.5878150442, 1517.51423723, -46961.0735778142, 1006.60216444001, 53.0703, 53.0703, 53.0703, 149470.204239739, -300.320818825478, 435.195117299101, -1230.47144989667, -105.686123878857, -48478.5878150442, 0, ]
  - [7200, -48477.1150174077, 1509.84661723745, -46967.2684001702, 1001.51605539982, 53.0703, 53.0703, 53.0703, 149470.204239739, -319.041868419829, -1207.070413868, -397.540759204807, 647.485567813316, -48477.1150174077, 0, ]
  - [7300, -48474.0750830632, 1496.85613987573, -46977.2189431874, 992.899172402211, 53.0703, 53.0703, 53.0703, 149470.204239739, -17.0621329576463, 28.2307734360332, -97.6603974347096, 18.24322512574, -48474.0750830632, 0, ]
  - [7400, -48458.3748704627, 1509.62098027477, -46948.753890188, 1001.3663852027, 53.0703, 53.0703, 53.0703, 149470.204239739, 2080.52218133034, 2363.23743860196, 2038.6975557424, 1839.63154964668, -48458.3748704627, 0, ]
  - [7500, -48472.3921685422, 1494.07125891109, -46978.3209096312, 991.051896681207, 53.0703, 53.0703, 53.0703, 149470.204239739, 906.307655426151, 1256.74288453911, 538.248201375443, 923.931880363893, -48472.3921685422, 0, ]
  - [7600, -48490.0550924679, 1513.96387970501, -46976.0912127629, 1004.24713047624, 53.0703, 53.0703, 53.0703, 149470.204239739, -631.732831788823, -151.689152289888, -964.007880405826, -779.501462670752, -48490.0550924679, 0, ]
  - [7700, -48481.1168075801, 1504.16200909537, -46976.9547984847, 997.745323818242, 53.0703, 53.0703, 53.0703, 149470.204239739, -1162.73442055224, -951.774410099513, -1775.79531026891, -760.633541288302, -48481.1168075801, 0, ]
  - [7800, -48478.6647999742, 1515.38062186862, -46963.2841781055, 1005.18688820197, 53.0703, 53.0703, 53.0703, 149470.204239739, 197.801511301609, -470.357357475872, 49.644579919314, 1014.11731146138, -48478.6647999742, 0, ]
  - [7900, -48481.0634903098, 1503.33711936123, -46977.7263709486, 997.198155448133, 53.0703, 53.0703, 53.0703, 149470.204239739, 151.715954190379, 415.136381582759, -276.870221226878, 316.881702215253, -48481.0634903098, 0, ]
  - [8000, -48479.1867106148, 1511.4220539127, -46967.7646567021, 1002.56107885221, 53.0703, 53.0703, 53.0703, 149470.204239739, -451.317767475376, 491.010487005043, -1262.01436311681, -582.949426314358, -48479.1867106148, 0, ]
  - [8100, -48487.0009611038, 1505.01933761629, -46981.9816234875, 998.314009583174, 53.0703, 53.0703, 53.0703, 149470.204239739, -844.084743847457, -852.11581686588, -834.2374509812, -845.900963695294, -48487.0009611038, 0, ]
  - [8200, -48475.353081981, 1499.81545669402, -46975.537625287, 994.862155444787, 53.0703, 53.0703, 53.0703, 149470.204239739, -208.767385387192, -585.126424251486, 305.624252424492, -346.799984334573, -48475.353081981, 0, ]
  - [8300, -48471.3493463042, 1510.76014308195, -46960.5892032222, 1002.12201814454, 53.0703, 53.0703, 53.0703, 149470.204239739, 568.087889576061, 388.395786928814, 431.979900277104, 883.88798152226, -48471.3493463042, 0, ]
  - [8400, -48485.9315944444, 1515.1575696768, -46970.7740247676, 1005.03893254293, 53.0703, 53.0703, 53.0703, 149470.204239739, -926.089717227464, -639.842157173926, -1364.96025878143, -773.46673572704, -48485.9315944444, 0, ]
  - [8500, -48462.6075912408, 1516.86998487301, -46945.7376063678, 1006.17481700493, 53.0703, 53.0703, 53.0703, 149470.204239739, 676.571946484847, 986.456621055892, 546.898911111815, 496.360307286834, -48462.6075912408, 0, ]
  - [8600, -48477.0302541466, 1496.85651875417, -46980.1737353924, 992.899423721011, 53.0703, 53.0703, 53.0703, 149470.204239739, 53.2598468428196, 740.395424854154, -243.038192177203, -337.577692148494, -48477.0302541466, 0, ]
  - [8700, -48476.6582980245, 1518.70094185724, -46957.9573561672, 1007.38933296669, 53.0703, 53.0703, 53.0703, 149470.204239739, 19.3809232801317, -443.086436001855, 451.496446517336, 49.7327593249193, -48476.6582980245, 0, ]
  - [8800, -48467.9191826921, 1514.35252802244, -46953.5666546696, 1004.50492986153, 53.0703, 53.0703, 53.0703, 149470.204239739, 875.600264172787, 1408.88094704276, 535.995040442178, 681.924805033427, -48467.9191826921, 0, ]
  - [8900, -48469.0127350867, 1522.2729511277, -46946.739783959, 1009.7587290322, 53.0703, 53.0703, 53.0703, 149470.204239739, 877.921512763498, 1043.34041243445, 1154.20388809026, 436.22023776579, -48469.0127350867, 0, ]
  - [9000, -48475.5954829048, 1514.00326293104, -46961.5922199738, 1004.27325427765, 53.0703, 53.0703, 53.0703, 149470.204239739, 418.067091484764, 1307.91478062508, 666.97821704047, -720.691723211259, -48475.5954829048, 0, ]
  - [9100, -48477.8870586913, 1515.57077128721, -46962.3162874041, 1005.31301869328, 53.0703, 53.0703, 53.0703, 149470.204239739, -260.907530684972, -294.069495540541, 578.709012686857, -1067.36210920123, -48477.8870586913, 0, ]
  - [9200, -48475.7248223408, 1526.73109427045, -46948.9937280704, 1012.71591811602, 53.0703, 53.0703, 53.0703, 149470.204239739, 64.4823157880531, 122.528224688458, 13.5559927518522, 57.3627299238475, -48475.7248223408, 0, ]
  - [9300, -48462.1806461979, 1506.90090270904, -46955.2797434889, 999.562095069579, 53.0703, 53.0703, 53.0703, 149470.204239739, 1404.51399929904, 1109.53348297613, 1679.97826389677, 1424.03025102424, -48462.1806461979, 0, ]
  - [9400, -48475.0189429873, 1509.40103599052, -46965.6179069967, 1001.22049109038, 53.0703, 53.0703, 53.0703, 149470.204239739, -535.319963452727, -635.891260232584, -269.414850174741, -700.653779950852, -48475.0189429873, 0, ]
  - [9500, -48473.5578144525, 1495.9558789785, -46977.601935474, 992.302008602698, 53.0703, 53.0703, 53.0703, 149470.204239739, 7.06791267670526, -244.782865951597, -572.450609304033, 838.43721328575, -48473.5578144525, 0, ]
  - [9600, -48489.8586469153, 1532.22955416396, -46957.6290927513, 1016.36317327456, 53.0703, 53.0703, 53.0703, 149470.204239739, -1543.2996201985, -1185.29086769652, -1842.27991143122, -1602.32808146776, -48489.8586469153, 0, ]
  - [9700, -48466.2946725868, 1501.28380515655, -46965.0108674302, 995.836144817849, 53.0703, 53.0703, 53.0703, 149470.204239739, 1082.46601715829, 505.5780240294, 1102.04417931389, 1639.77584813159, -48466.2946725868, 0, ]
  - [9800, -48468.1232015993, 1491.2092968267, -46976.9139047726, 989.153491277147, 53.0703, 53.0703, 53.0703, 149470.204239739, 970.373510486426, 502.874722825396, 1936.35588255643, 471.889926077461, -48468.1232015993, 0, ]
  - [9900, -48469.1431754496, 1521.56640571723, -46947.5767697324, 1009.2900611792, 53.0703, 53.0703, 53.0703, 149470.204239739, 520.832496291353, 122.317600273664, 1009.48076765147, 430.699120948918, -48469.1431754496, 0, ]
  - [10000, -48466.7954541295, 1526.11355323669, -46940.6819008929, 1012.30628891719, 53.0703, 53.0703, 53.0703, 149470.204239739, 680.143342610913, 251.152920876125, 790.647004407061, 998.630102549551, -48466.7954541295, 0, ]
  - [10100, -48463.0508034549, 1512.6525869992, -46950.3982164557, 1003.37731980594, 53.0703, 53.0703, 53.0703, 149470.204239739, 1478.03680123325, 1198.71782844572, 1726.55130550974, 1508.84126974429, -48463.0508034549, 0, ]
  - [10200, -48466.8509616351, 1487.31494661294, -46979.5360150222, 986.570279035652, 53.0703, 53.0703, 53.0703, 149470.204239739, 610.999263695668, 1133.02866333849, 36.817042149507, 663.15208559901, -48466.8509616351, 0, ]
  - [10300, -48474.5145426904, 1514.9560457843, -46959.5584969061, 1004.90525710095, 53.0703, 53.0703, 53.0703, 149470.204239739, -126.866349885864, -398.145056238288, 434.395344085644, -416.849337504949, -48474.5145426904, 0, ]
  - [10400, -48479.0878111858, 1518.4335554307, -46960.6542557551, 1007.21196938809, 53.0703, 53.0703, 53.0703, 149470.204239739, -244.420515036533, -208.305763812274, -341.092855049383, -183.862926247946, -48479.0878111858, 0, ]
  - [10500, -48467.0918336232, 1522.80565353989, -46944.2861800833, 1010.11208281825, 53.0703, 53.0703, 53.0703, 149470.204239739, 851.079538412812, 1410.63074679654, 491.751586774213, 650.856281667678, -48467.0918336232, 0, ]
  - [10600, -48468.6918761534, 1497.23338648199, -46971.4584896714, 993.149408769732, 53.0703, 53.0703, 53.0703, 149470.204239739, 1045.79510365056, 1161.62238587973, 830.9033733026, 1144.85955176934, -48468.6918761534, 0, ]
  - [10700, -48484.7164356684, 1510.43616662634, -46974.280269042, 1001.90711709554, 53.0703, 53.0703, 53.0703, 149470.204239739, -674.021922112979, -582.863271553697, -1022.89388068284, -416.308614102395, -48484.7164356684, 0, ]
  - [10800, -48474.9286712769, 1509.22772726767, -46965.7009440093, 1001.10553142064, 53.0703, 53.0703, 53.0703, 149470.204239739, 704.155968598803, 1136.73585832337, 142.815463761469, 832.916583711575, -48474.9286712769, 0, ]
  - [10900, -48476.5831434134, 1491.47847356577, -46985.1046698477, 989.332042411308, 53.0703, 53.0703, 53.0703, 149470.204239739, -736.289423358422, -457.385730184545, -809.253691930026, -942.228847960698, -48476.5831434134, 0, ]
  - [11000, -48468.4754945248, 1487.36611945511, -46981.1093750697, 986.604223161133, 53.0703, 53.0703, 53.0703, 149470.204239739, 884.308808108481, 260.607601353958, 1237.70288796835, 1154.61593500313, -48468.4754945248, 0, ]
  - [11100, -48486.6121416049, 1504.36755926381, -46982.2445823411, 997.881669981843, 53.0703, 53.0703, 53.0703, 149470.204239739, -837.594675986325, -1948.54756144703, -92.9064539384387, -471.330012573511, -48486.6121416049, 0, ]
  - [11200, -48462.4439454397, 1498.4554406279, -46963.9885048118, 993.960025446765, 53.0703, 53.0703, 53.0703, 149470.204239739, 1492.16911517195, 1219.66561299356, 2171.43012565616, 1085.41160686612, -48462.4439454397, 0, ]
  - [11300, -48462.8758321886, 1488.12506428951, -46974.7507678991, 987.107648759557, 53.0703, 53.0703, 53.0703, 149470.204239739, 1166.42627705756, 1087.56307283162, 993.088950995215, 1418.62680734584, -48462.8758321886, 0, ]
  - [11400, -48462.4339209728, 1524.07242987537, -46938.3614910975, 1010.95236475424, 53.0703, 53.0703, 53.0703, 149470.204239739, 1898.70522733942, 2174.76594742624, 1538.87063726762, 1982.47909732439, -48462.4339209728, 0, ]
  - [11500, -48478.6798724645, 1516.1988441499, -46962.4810283146, 1005.72963389695, 53.0703, 53.0703, 53.0703, 149470.204239739, -361.648088658951, -272.357231865905, -443.123640717378, -369.463393393568, -48478.6798724645, 0, ]
  - [11600, -48466.8035970498, 1505.00970921596, -46961.7938878339, 998.307622843356, 53.0703, 53.0703, 53.0703, 149470.204239739, 1063.81977936268, 1066.05617013433, 1533.9555905245, 591.447577429208, -48466.8035970498, 0, ]
  - [11700, -48468.4820084602, 1515.83788673148, -46952.6441217287, 1005.49020252311, 53.0703, 53.0703, 53.0703, 149470.204239739, 415.199437803866, 792.817897304331, 940.349994455266, -487.569578347999, -48468.4820084602, 0, ]
  - [11800, -48467.7858274137, 1504.80741498841, -46962.9784124253, 998.173436420379, 53.0703, 53.0703, 53.0703, 149470.204239739, 1034.23078826152, 1228.93484040664, 1692.62981060043, 181.127713777493, -48467.7858274137, 0, ]
  - [11900, -48478.9306100023, 1500.96566714422, -46977.9649428581, 995.625116542831, 53.0703, 53.0703, 53.0703, 149470.204239739, -135.685087957874, -553.763928827417, 495.17585356197, -348.46718860817, -48478.9306100023, 0, ]
  - [12000, -48469.6113768971, 1515.5215276803, -46954.0898492168, 1005.28035427401, 53.0703, 53.0703, 53.0703, 149470.204239739, 202.373789016289, -24.1011676079814, 193.864567186757, 437.357967470086, -48469.6113768971, 0, ]
  - [12100, -48482.9107322694, 1512.22259428574, -46970.6881379837, 1003.09209572998, 53.0703, 53.0703, 53.0703, 149470.204239739, -964.884770484799, -1385.95538627276, -820.648686739677, -688.050238441961, -48482.9107322694, 0, ]
  - [12200, -48466.7662323169, 1497.82769397218, -46968.9385383447, 993.5436266237, 53.0703, 53.0703, 53.0703, 149470.204239739, 889.193317834444, 1035.378630727, 1030.60516697629, 601.596155800039, -48466.7662323169, 0, ]
  - [12300, -48459.7588742436, 1498.55301597046, -46961.2058582731, 994.024749420095, 53.0703, 53.0703, 53.0703, 149470.204239739, 1238.44729820752, 842.680630416483, 1937.41765802656, 935.243606179529, -48459.7588742436, 0, ]
  - [12400, -48471.6174961252, 1498.01675548356, -46973.6007406416, 993.669035481091, 53.0703, 53.0703, 53.0703, 149470.204239739, 495.348873267877, 436.367329389479, 190.169191486725, 859.510098927431, -48471.6174961252, 0, ]
  - [12500, -48480.9429771098, 1478.99495193411, -47001.9480251756, 981.051434832169, 53.0703, 53.0703, 53.0703, 149470.204239739, -502.970394943123, -55.3340323491291, -649.503830970833, -804.073321509406, -48480.9429771098, 0, ]
  - [12600, -48481.3072169474, 1504.16406987714, -46977.1431470702, 997.746690782285, 53.0703, 53.0703, 53.0703, 149470.204239739, -404.668092528072, -983.809980517126, -146.139816006178, -84.0544810609105, -48481.3072169474, 0, ]
  - [12700, -48482.3510055187, 1514.71026766903, -46967.6407378496, 1004.74222681317, 53.0703, 53.0703, 53.0703, 149470.204239739, -344.448508184475, -23.0085797645817, 274.777248623341, -1285.11419341218, -48482.3510055187, 0, ]
  - [12800, -48467.0361213606, 1499.87236866236, -46967.1637526982, 994.899906464914, 53.0703, 53.0703, 53.0703, 149470.204239739, 803.478470986153, 754.906082132642, 695.013300703641, 960.516030122179, -48467.0361213606, 0, ]
  - [12900, -48471.0253290753, 1498.48322141015, -46972.5421076652, 993.978453079834, 53.0703, 53.0703, 53.0703, 149470.204239739, 551.639017417355, 709.019574961357, 655.77642598019, 290.121051310518, -48471.0253290753, 0, ]
  - [13000, -48481.1658989254, 1487.44478167864, -46993.7211172468, 986.656401626756, 53.0703, 53.0703, 53.0703, 149470.204239739, -539.798922354457, -689.86072519681, 249.639867202622, -1179.17590906919, -48481.1658989254, 0, ]
  - [13100, -48464.6824236407, 1478.55769198655, -46986.1247316542, 980.761390232358, 53.0703, 53.0703, 53.0703, 149470.204239739, 1180.14866260889, 808.845062030776, 1463.42504615461, 1268.1758796413, -48464.6824236407, 0, ]
  - [13200, -48501.6568218534, 1505.23319679046, -46996.423625063, 998.455867301753, 53.0703, 53.0703, 53.0703, 149470.204239739, -2112.4816131884, -2104.74662882663, -1730.55461155397, -2502.14359918461, -48501.6568218534, 0, ]
  - [13300, -48475.5203991514, 1498.80898252266, -46976.7114166287, 994.194537932881, 53.0703, 53.0703, 53.0703, 149470.204239739, 224.031950674429, 162.745410970793, 1077.95211267517, -568.601671622667, -48475.5203991514, 0, ]
  - [13400, -48475.9882087698, 1521.07005180932, -46954.9181569604, 1008.96081819369, 53.0703, 53.0703, 53.0703, 149470.204239739, 230.370114517545, 106.862661392675, 84.0484925601366, 500.199189599826, -48475.9882087698, 0, ]
  - [13500, -48458.6493211283, 1508.38446048641, -46950.2648606419, 1000.54617313167, 53.0703, 53.0703, 53.0703, 149470.204239739, 1849.89650929072, 1183.75822453189, 1682.62591746266, 2683.30538587761, -48458.6493211283, 0, ]
  - [13600, -48476.8139806238, 1507.61318404399, -46969.2007965799, 1000.03456769347, 53.0703, 53.0703, 53.0703, 149470.204239739, 367.261823293416, 786.905834974621, 88.0560950355425, 226.823539870084, -48476.8139806238, 0, ]
  - [13700, -48479.0026871252, 1510.66462607598, -46968.3380610492, 1002.0586595133, 53.0703, 53.0703, 53.0703, 149470.204239739, 93.0658308863081, 998.549021000609, -531.644109266429, -187.707419075262, -48479.0026871252, 0, ]
  - [13800, -48490.9178780569, 1486.85290920507, -47004.0649688518, 986.263798975428, 53.0703, 53.0703, 53.0703, 149470.204239739, -1471.59851807513, -1395.96347024344, -1446.14076075154, -1572.69132323041, -48490.9178780569, 0, ]
  - [13900, -48484.3788290502, 1497.52744327571, -46986.8513857744, 993.344463417502, 53.0703, 53.0703, 53.0703, 149470.204239739, -1089.98874161484, -769.506955275504, -684.267197599494, -1816.19207196953, -48484.3788290502, 0, ]
  - [14000, -48481.438291374, 1503.57587102166, -46977.8624203523, 997.356524926487, 53.0703, 53.0703, 53.0703, 149470.204239739, -559.63021753056, -66.7867331864582, -1053.59961849481, -558.504300910408, -48481.438291374, 0, ]
  - [14100, -48469.1777170528, 1485.66940744206, -46983.5083096107, 985.478754982404, 53.0703, 53.0703, 53.0703, 149470.204239739, 625.330611050756, 345.651710764202, 1041.49106837105, 488.849054017014, -48469.1777170528, 0, ]
  - [14200, -48483.4080169022, 1491.76730310379, -46991.6407137984, 989.523629699907, 53.0703, 53.0703, 53.0703, 149470.204239739, -485.524936194285, 73.9992665625561, -940.643997549579, -589.93007759583, -48483.4080169022, 0, ]
  - [14300, -48492.524310857, 1516.77192127887, -46975.7523895782, 1006.10976916308, 53.0703, 53.0703, 53.0703, 149470.204239739, -1389.64787736412, -1137.74580944136, -1712.48590754703, -1318.71191510395, -48492.524310857, 0, ]
  - [14400, -48476.3824571907, 1520.9428863513, -46955.4395708394, 1008.87646641487, 53.0703, 53.0703, 53.0703, 149470.204239739, 265.587969006986, 459.258782162363, 558.827364435586, -221.322239576994, -48476.3824571907, 0, ]
  - [14500, -48477.6770353636, 1529.62250739175, -46948.0545279719, 1014.63385907155, 53.0703, 53.0703, 53.0703, 149470.204239739, -383.473839894815, -676.02482262969, 9.78289390015067, -484.179590954907, -48477.6770353636, 0, ]
  - [14600, -48479.6439626322, 1517.28231657613, -46962.3616460561, 1006.44832612573, 53.0703, 53.0703, 53.0703, 149470.204239739, -376.689069255791, -492.694991977148, 41.2289480528523, -678.601163843072, -48479.6439626322, 0, ]
  - [14700, -48485.5055829906, 1535.3952487031, -46950.1103342875, 1018.46305141532, 53.0703, 53.0703, 53.0703, 149470.204239739, -155.545469537822, -320.802688592643, -597.092106213904, 451.258386193078, -48485.5055829906, 0, ]
  - [14800, -48480.6154315965, 1521.54458933505, -46959.0708422615, 1009.27558987015, 53.0703, 53.0703, 53.0703, 149470.204239739, -480.217597429581, -715.758932527184, -626.92855096132, -97.9653088002352, -48480.6154315965, 0, ]
  - [14900, -48480.4018245176, 1517.01830028699, -46963.3835242307, 1006.27319803693, 53.0703, 53.0703, 53.0703, 149470.204239739, -128.903093031361, -491.094765180559, 525.928575104181, -421.543089017705, -48480.4018245176, 0, ]
  - [15000, -48478.8113704058, 1498.42009483231, -46980.3912755735, 993.936579766017, 53.0703, 53.0703, 53.0703, 149470.204239739, 227.386322840327, 236.458492612028, 121.919043743823, 323.781432165129, -48478.8113704058, 0, ]
  - [15100, -48480.8581171159, 1485.9543350235, -46994.9037820924, 985.667754013286, 53.0703, 53.0703, 53.0703, 149470.204239739, 121.074366724426, 368.334687583018, -19.1979580861237, 14.0863706763859, -48480.8581171159, 0, ]
  - [15200, -48483.3248073431, 1486.9171389743, -46996.4076683688, 986.306404061521, 53.0703, 53.0703, 53.0703, 149470.204239739, -481.013941556126, -188.54862054551, 299.546805227784, -1554.04000935065, -48483.3248073431, 0, ]
  - [15300, -48481.6615380168, 1504.08685716554, -46977.5746808513, 997.695473811326, 53.0703, 53.0703, 53.0703, 149470.204239739, -649.583046919507, -446.402770770182, -386.347642682543, -1115.99872730579, -48481.6615380168, 0, ]
  - [15400, -48475.7872630558, 1500.4668315993, -46975.3204314565, 995.294227430295, 53.0703, 53.0703, 53.0703, 149470.204239739, 280.005275605028, -71.4725357095592, 795.58892866258, 115.899433862056, -48475.7872630558, 0, ]
  - [15500, -48468.7914718612, 1515.25496669058, -46953.5365051706, 1005.10353822667, 53.0703, 53.0703, 53.0703, 149470.204239739, 1039.66776565206, 746.09223243259, 1177.02152190768, 1195.88954261589, -48468.7914718612, 0, ]
  - [15600, -48457.5817599735, 1494.68007312895, -46962.9016868446, 991.455737181941, 53.0703, 53.0703, 53.0703, 149470.204239739, 2242.49241243078, 2219.31301570731, 3035.34079938606, 1472.82342219899, -48457.5817599735, 0, ]
  - [15700, -48472.1443598323, 1509.53044831803, -46962.6139115142, 1001.3063332695, 53.0703, 53.0703, 53.0703, 149470.204239739, 622.997362172697, 1067.24537352208, -74.2795424647044, 876.026255460709, -48472.1443598323, 0, ]
  - [15800, -48487.0060990656, 1522.90029422103, -46964.1058048445, 1010.17486016303, 53.0703, 53.0703, 53.0703, 149470.204239739, -722.555355636189, -383.382106410147, -746.185456826184, -1038.09850367224, -48487.0060990656, 0, ]
  - [15900, -48481.7378002982, 1506.6576802899, -46975.0801200083, 999.40076003394, 53.0703, 53.0703, 53.0703, 149470.204239739, -545.131385309744, -209.305021263894, -498.40128598911, -927.687848676222, -48481.7378002982, 0, ]
  - [16000, -48493.442690907, 1503.10387412821, -46990.3388167788, 997.043438509968, 53.0703, 53.0703, 53.0703, 149470.204239739, -2106.37414392019, -2312.15531397698, -1442.54686492543, -2564.42025285815, -48493.442690907, 0, ]
  - [16100, -48479.9222954251, 1523.19198048169, -46956.7303149434, 1010.3683423816, 53.0703, 53.0703, 53.0703, 149470.204239739, -710.570495250508, -926.223416837408, -534.885954485151, -670.602114428962, -48479.9222954251, 0, ]
  - [16200, -48477.9836778494, 1514.39724661027, -46963.5864312392, 1004.53459273137, 53.0703, 53.0703, 53.0703, 149470.204239739, -627.911070516702, -596.805202643762, 69.1821239249976, -1356.11013283134, -48477.9836778494, 0, ]
  - [16300, -48478.233903946, 1511.25842183484, -46966.9754821112, 1002.45253792409, 53.0703, 53.0703, 53.0703, 149470.204239739, -565.071105405485, -915.038044846495, -15.5892407174939, -764.586030652469, -48478.233903946, 0, ]
  - [16400, -48463.6664234185, 1507.93516678246, -46955.731256636, 1000.24814626394, 53.0703, 53.0703, 53.0703, 149470.204239739, 1265.31594048372, 1302.26057303145, 1655.02920111497, 838.658047304739, -48463.6664234185, 0, ]
  - [16500, -48482.3764438644, 1502.96991874789, -46979.4065251165, 996.954582819221, 53.0703, 53.0703, 53.0703, 149470.204239739, -711.752272969003, -596.430080281819, -973.933808426852, -564.892930198345, -48482.3764438644, 0, ]
  - [16600, -48466.212930457, 1512.61110191214, -46953.6018285448, 1003.34980179167, 53.0703, 53.0703, 53.0703, 149470.204239739, 482.799561809068, 813.976318175337, 299.113456374566, 335.308910877296, -48466.212930457, 0, ]
  - [16700, -48461.6961141305, 1504.65787142073, -46957.0382427098, 998.074240725728, 53.0703, 53.0703, 53.0703, 149470.204239739, 2139.23337902516, 1793.30326170725, 1854.6212707633, 2769.77560460494, -48461.6961141305, 0, ]
  - [16800, -48471.1939320377, 1509.46096446987, -46961.7329675678, 1001.26024303177, 53.0703, 53.0703, 53.0703, 149470.204239739, 428.076561131866, -124.627273703016, 68.4814597557616, 1340.37549734285, -48471.1939320377, 0, ]
  - [16900, -48488.1119562793, 1507.41083946523, -46980.701116814, 999.900347871378, 53.0703, 53.0703, 53.0703, 149470.204239739, -744.093609429856, -1679.26054747584, -743.242976288618, 190.222695474895, -48488.1119562793, 0, ]
  - [17000, -48468.9413059787, 1508.92040275755, -46960.0209032211, 1000.90167599083, 53.0703, 53.0703, 53.0703, 149470.204239739, 980.957756481529, 338.144172658472, 1546.76240084079, 1057.96669594532, -48468.9413059787, 0, ]
  - [17100, -48468.1636002885, 1518.57090359286, -46949.5926966956, 1007.30307558921, 53.0703, 53.0703, 53.0703, 149470.204239739, 492.349435584335, 590.90907591396, 986.420425833675, -100.281194994636, -48468.1636002885, 0, ]
  - [17200, -48477.624082143, 1500.24615633594, -46977.3779258071, 995.147848442684, 53.0703, 53.0703, 53.0703, 149470.204239739, -313.044665165874, -631.99518163181, 362.536152135645, -669.674966001455, -48477.624082143, 0, ]
  - [17300, -48477.2164553081, 1505.43260059319, -46971.783854715, 998.588136439338, 53.0703, 53.0703, 53.0703, 149470.204239739, 205.254378148953, 35.1925925204608, 358.684844346302, 221.885697580094, -48477.2164553081, 0, ]
  - [17400, -48483.8579037586, 1506.20431952636, -46977.6535842323, 999.100035391854, 53.0703, 53.0703, 53.0703, 149470.204239739, -285.533864887438, -930.865917972419, 631.860597081542, -557.596273771441, -48483.8579037586, 0, ]
  - [17500, -48487.5082082597, 1490.13079610255, -46997.3774121572, 988.438096892934, 53.0703, 53.0703, 53.0703, 149470.204239739, -1679.44631450782, -1467.79988743286, -1482.41711431328, -2088.12194177732, -48487.5082082597, 0, ]
  - [17600, -48484.1024635457, 1492.33338246932, -46991.7690810764, 989.899123188278, 53.0703, 53.0703, 53.0703, 149470.204239739, -373.522271890917, -142.856438202171, -326.085274722123, -651.625102748454, -48484.1024635457, 0, ]
  - [17700, -48472.8007674286, 1503.30503058966, -46969.4957368389, 997.176870226464, 53.0703, 53.0703, 53.0703, 149470.204239739, 74.2724889262431, 203.744775811671, -160.145390065587, 179.218081032649, -48472.8007674286, 0, ]
  - [17800, -48476.9283096965, 1498.39757141423, -46978.5307382823, 993.921639463751, 53.0703, 53.0703, 53.0703, 149470.204239739, 294.588809992059, 294.216151690714, 20.8482190778155, 568.702059207648, -48476.9283096965, 0, ]
  - [17900, -48489.5394350181, 1513.2553025464, -46976.2841324717, 1003.77711491788, 53.0703, 53.0703, 53.0703, 149470.204239739, -2292.32934709998, -2520.25638473259, -1963.57490080511, -2393.15675576225, -48489.5394350181, 0, ]
  - [18000, -48487.2901756451, 1525.55786745363, -46961.7323081915, 1011.93768973159, 53.0703, 53.0703, 53.0703, 149470.204239739, -933.205550614062, -1355.93802527606, -597.569312240189, -846.10931432594, -48487.2901756451, 0, ]
  - [18100, -48476.4992844738, 1503.7832282138, -46972.71605626, 997.494069730553, 53.0703, 53.0703, 53.0703, 149470.204239739, 276.71178016413, 101.743359134849, -226.518879849828, 954.91086120737, -48476.4992844738, 0, ]
  - [18200, -48468.1991986177, 1489.63142567311, -46978.5677729446, 988.106852979168, 53.0703, 53.0703, 53.0703, 149470.204239739, 1340.22511702071, 1637.10709942644, 2074.50697959004, 309.061272045667, -48468.1991986177, 0, ]
  - [18300, -48488.5229884135, 1500.49595333958, -46988.0270350739, 995.313544551727, 53.0703, 53.0703, 53.0703, 149470.204239739, -709.322539603645, -504.659834336952, 224.454545749664, -1847.76233022365, -48488.5229884135, 0, ]
  - [18400, -48488.3645611921, 1488.17713405714, -47000.187427135, 987.14218783637, 53.0703, 53.0703, 53.0703, 149470.204239739, -954.954553129808, -674.577608659954, -1075.82591312233, -1114.46013760715, -48488.3645611921, 0, ]
  - [18500, -48479.3650939626, 1501.28900043224, -46978.0760935304, 995.839590963944, 53.0703, 53.0703, 53.0703, 149470.204239739, -320.821464046704, 258.412213882534, -1042.53944899801, -178.337157024636, -48479.3650939626, 0, ]
  - [18600, -48480.8130485289, 1486.33030426741, -46994.4827442614, 985.917143076925, 53.0703, 53.0703, 53.0703, 149470.204239739, -641.997932950637, -232.24159336516, -951.103072172776, -742.649133313976, -48480.8130485289, 0, ]
  - [18700, -48467.679106301, 1508.27820508625, -46959.4009012148, 1000.47569147611, 53.0703, 53.0703, 53.0703, 149470.204239739, 1397.33626673824, 930.380487712272, 1646.70363876721, 1614.92467373526, -48467.679106301, 0, ]
  - [18800, -48471.6756691915, 1506.8384446646, -46964.8372245269, 999.520665209365, 53.0703, 53.0703, 53.0703, 149470.204239739, 576.519371507844, 746.978284454422, 498.605321581956, 483.974508487152, -48471.6756691915, 0, ]
  - [18900, -48476.8430100603, 1516.84805246465, -46959.9949575957, 1006.16026873303, 53.0703, 53.0703, 53.0703, 149470.204239739, -196.346599018164, 102.095039145142, -699.985634312685, 8.85079811305447, -48476.8430100603, 0, ]
  - [19000, -48475.8767496531, 1509.50528358275, -46966.3714660703, 1001.28964092067, 53.0703, 53.0703, 53.0703, 149470.204239739, 746.027592294445, 394.365087400232, 1056.90411489848, 786.813574584621, -48475.8767496531, 0, ]
  - [19100, -48484.4956325644, 1516.35145593125, -46968.1441766331, 1005.83086480843, 53.0703, 53.0703, 53.0703, 149470.204239739, -790.22265996483, -1102.34852982228, -494.174488638269, -774.144961433947, -48484.4956325644, 0, ]
  - [19200, -48488.458243643, 1524.28038134306, -46964.1778623, 1011.09030375497, 53.0703, 53.0703, 53.0703, 149470.204239739, -773.787000665794, -197.81031732544, -1127.74882360383, -995.801861068108, -48488.458243643, 0, ]
  - [19300, -48457.9141019071, 1508.9962901122, -46948.9178117949, 1000.95201382198, 53.0703, 53.0703, 53.0703, 149470.204239739, 1460.44106126457, 1775.87674302157, 834.55607277131, 1770.89036800083, -48457.9141019071, 0, ]
  - [19400, -48471.0194085049, 1504.78022270697, -46966.239185798, 998.155399153457, 53.0703, 53.0703, 53.0703, 149470.204239739, 357.361200202118, 435.452789031528, -779.874115572761, 1416.50492714759, -48471.0194085049, 0, ]
  - [19500, -48470.9903728091, 1515.10009989299, -46955.8902729161, 1005.00081151095, 53.0703, 53.0703, 53.0703, 149470.204239739, 542.331468622461, -71.1507131993342, 1371.58277240739, 326.562346659327, -48470.9903728091, 0, ]
  - [19600, -48474.4467508326, 1495.12072138771, -46979.3260294449, 991.748029326649, 53.0703, 53.0703, 53.0703, 149470.204239739, 568.952821391085, 179.306602117919, 953.049425864124, 574.502436191214, -48474.4467508326, 0, ]
  - [19700, -48486.1110174407, 1520.76992203954, -46965.3410954012, 1008.76173520094, 53.0703, 53.0703, 53.0703, 149470.204239739, -413.704398296697, 37.0107125033227, -361.989350980481, -916.134556412933, -48486.1110174407, 0, ]
  - [19800, -48457.2881356403, 1503.86998638114, -46953.4181492592, 997.551618422274, 53.0703, 53.0703, 53.0703, 149470.204239739, 2090.98503887267, 2025.34906174012, 2326.47060038629, 1921.13545449161, -48457.2881356403, 0, ]
  - [19900, -48462.4559080737, 1503.87211341972, -46958.583794654, 997.553029335984, 53.0703, 53.0703, 53.0703, 149470.204239739, 1139.1333489229, 757.661762546385, 1410.45403392001, 1249.2842503023, -48462.4559080737, 0, ]
  - [20000, -48478.2778855908, 1515.60555819805, -46962.6723273927, 1005.33609365291, 53.0703, 53.0703, 53.0703, 149470.204239739, -52.2651918872185, -684.502652028226, -218.049990145717, 745.757066512283, -50098.9521776991, 0, ]
...
Loop time of 18.3584 on 64 procs for 20000 steps with 11664 atoms

Performance: 94.126 ns/day, 0.255 hours/ns, 1089.421 timesteps/s, 12.707 Matom-step/s
75.7% CPU use with 64 MPI tasks x 1 OpenMP threads

MPI task timing breakdown:
Section |  min time  |  avg time  |  max time  |%varavg| %total
---------------------------------------------------------------
Pair    | 10.879     | 11.342     | 11.891     |   6.5 | 61.78
Neigh   | 0          | 0          | 0          |   0.0 |  0.00
Comm    | 4.0265     | 4.4916     | 4.9189     |  10.4 | 24.47
Output  | 0.029256   | 0.030883   | 0.11168    |   5.8 |  0.17
Modify  | 1.8594     | 1.9892     | 2.1082     |   4.9 | 10.84
Other   |            | 0.5045     |            |       |  2.75

Nlocal:         182.25 ave         189 max         180 min
Histogram: 48 0 0 0 0 0 0 0 0 16
Nghost:        1275.75 ave        1278 max        1269 min
Histogram: 16 0 0 0 0 0 0 0 0 48
Neighs:           5832 ave        6240 max        5628 min
Histogram: 16 32 0 0 0 0 0 0 0 16

Total # of neighbors = 373248
Ave neighs/atom = 32
Neighbor list builds = 0
Dangerous builds = 0
fix fpf all print 1 "${dE} ${lambda}" title "# dE [eV] lambda" screen no file data/forward_${T}K.dat
fix fpf all print 1 "${dE} ${lambda}" title "# dE [eV] lambda" screen no file data/forward_1000K.dat
run ${t}
run 100000
Per MPI rank memory allocation (min/avg/max) = 3.736 | 3.736 | 3.736 Mbytes
---
keywords: ['Step', 'PotEng', 'KinEng', 'TotEng', 'Temp', 'Lx', 'Ly', 'Lz', 'Volume', 'Press', 'Pxx', 'Pyy', 'Pzz', 'v_dE', 'v_lambda', ]
data:
  - [20000, -48478.2778855908, 1515.60555819805, -46962.6723273927, 1005.33609365291, 53.0703, 53.0703, 53.0703, 149470.204239739, -52.2651918872202, -684.502652028233, -218.049990145687, 745.757066512256, -50098.9521776991, 0, ]
  - [20100, -48486.1766777266, 1509.19970720544, -46976.9769705212, 1001.08694506764, 53.0703, 53.0703, 53.0703, 149470.204239739, -475.601039158513, -746.689316612784, -565.187173618479, -114.926627244275, -50087.6559924225, 1.2558053968507e-13, ]
  - [20200, -48469.7026440543, 1501.14658305048, -46968.5560610038, 995.745122232634, 53.0703, 53.0703, 53.0703, 149470.204239739, 844.328811659862, 1480.47583790154, -380.217133409222, 1432.72773048727, -50108.6265204659, 4.00518903939584e-12, ]
  - [20300, -48485.0328451865, 1517.61121614187, -46967.4216290447, 1006.66649278713, 53.0703, 53.0703, 53.0703, 149470.204239739, -404.072885072633, -196.829829402884, -916.566378641843, -98.822447173174, -50126.8722468687, 3.03129989146628e-11, ]
  - [20400, -48485.1898085053, 1516.55367010116, -46968.6361384041, 1005.96499812734, 53.0703, 53.0703, 53.0703, 149470.204239739, -519.165960391036, -67.7768827314619, -85.5822626518052, -1404.13873578984, -50143.2843341316, 1.2731250673451e-10, ]
  - [20500, -48486.8649647548, 1527.35930702856, -46959.5056577262, 1013.13262611554, 53.0703, 53.0703, 53.0703, 149470.204239739, -454.136303174035, -1219.71599392773, -220.6892194393, 77.9963038449289, -50120.4149593508, 3.87229564589844e-10, ]
  - [20600, -48488.8473476709, 1500.23961072181, -46988.6077369491, 995.143506585988, 53.0703, 53.0703, 53.0703, 149470.204239739, -1299.10037025673, -1709.0581059756, -1609.76539914825, -578.477605646374, -50118.007442301, 9.60331117066399e-10, ]
  - [20700, -48491.7457156986, 1506.01181492507, -46985.7339007735, 998.972342653581, 53.0703, 53.0703, 53.0703, 149470.204239739, -1427.02396995857, -1716.76503195261, -1193.27977782264, -1371.02710010045, -50107.0649541057, 2.06871232013244e-09, ]
  - [20800, -48490.3944329484, 1548.52896430205, -46941.8654686463, 1027.17494763658, 53.0703, 53.0703, 53.0703, 149470.204239739, -1087.08737049429, -1266.14978560016, -1145.85071570436, -849.261610178336, -50092.3468102964, 4.0197947066522e-09, ]
  - [20900, -48463.3895422482, 1497.94336912754, -46965.4461731207, 993.620356619968, 53.0703, 53.0703, 53.0703, 149470.204239739, 890.111686208494, 571.863973383721, 1164.99896777243, 933.472117469328, -50108.4661212693, 7.21953805066232e-09, ]
  - [21000, -48480.9039221142, 1532.78709816936, -46948.1168239448, 1016.73300506186, 53.0703, 53.0703, 53.0703, 149470.204239739, -251.455199311672, -895.535078830711, 518.189475393289, -377.019994497599, -50116.9705348596, 1.218536857e-08, ]
  - [21100, -48468.9544869041, 1515.6740205481, -46953.280466356, 1005.3815063074, 53.0703, 53.0703, 53.0703, 149470.204239739, 528.497831686467, 767.881439774572, 447.552281079177, 370.059774205647, -50126.2627459588, 1.95588260943488e-08, ]
  - [21200, -48486.8831396809, 1525.50003190096, -46961.3831077799, 1011.89932607669, 53.0703, 53.0703, 53.0703, 149470.204239739, -1574.24864411218, -1314.97911671347, -2054.08298088985, -1353.6838347332, -50124.2441860673, 3.01179328132704e-08, ]
  - [21300, -48482.4308300602, 1516.90804508719, -46965.522784973, 1006.20006322208, 53.0703, 53.0703, 53.0703, 149470.204239739, -663.770262891601, -751.700422900845, -813.336529782307, -426.273835991654, -50104.9691819505, 4.47892862063179e-08, ]
  - [21400, -48472.1709261887, 1499.19500324377, -46972.975922945, 994.450594372982, 53.0703, 53.0703, 53.0703, 149470.204239739, 974.540531463475, 1003.23853809611, 765.70759229346, 1154.67546400086, -50059.6676481939, 6.46598787448807e-08, ]
  - [21500, -48482.5215217108, 1528.54470522159, -46953.9768164892, 1013.9189280543, 53.0703, 53.0703, 53.0703, 149470.204239739, -107.764246262069, -287.103706076174, 48.4354252641215, -84.624457974151, -50034.9824089542, 9.09886469429883e-08, ]
  - [21600, -48472.5482591407, 1520.93241168657, -46951.6158474541, 1008.86951832837, 53.0703, 53.0703, 53.0703, 149470.204239739, 190.387957041484, -322.478250278381, 374.648201379084, 518.993920023749, -50051.7821730575, 1.25217752321905e-07, ]
  - [21700, -48464.863422627, 1506.22245202176, -46958.6409706052, 999.112063093915, 53.0703, 53.0703, 53.0703, 149470.204239739, 873.202944755024, 952.333682443144, 390.943841906428, 1276.33130991551, -50036.1926201803, 1.68983596840977e-07, ]
  - [21800, -48473.0949822798, 1498.90853456524, -46974.1864477146, 994.260573096886, 53.0703, 53.0703, 53.0703, 149470.204239739, 287.121373811549, 508.337218290221, 568.490070814171, -215.463167669748, -50045.7859449036, 2.24127575334849e-07, ]
  - [21900, -48478.0850007443, 1501.34241945952, -46976.7425812848, 995.875025035772, 53.0703, 53.0703, 53.0703, 149470.204239739, -661.640319923035, -655.040822047637, -265.003169573542, -1064.87696814793, -50040.1826887264, 2.92706567484841e-07, ]
  - [22000, -48476.7704145893, 1517.66442781605, -46959.1059867733, 1006.70178931686, 53.0703, 53.0703, 53.0703, 149470.204239739, 371.844823783566, 592.860123511653, -213.791395028375, 736.465742867424, -50005.4852513877, 3.7700317184e-07, ]
  - [22100, -48487.67634547, 1526.44629039124, -46961.2300550787, 1012.52700113968, 53.0703, 53.0703, 53.0703, 149470.204239739, -1120.87727805378, -1216.33470917351, -1078.76010149501, -1067.53702349283, -50018.6683231118, 4.79535684391045e-07, ]
  - [22200, -48481.6106176419, 1497.10063053314, -46984.5099871088, 993.061348689521, 53.0703, 53.0703, 53.0703, 149470.204239739, -673.249748694043, -658.4462778745, -336.819943751468, -1024.48302445616, -50060.1488242688, 6.03067824188202e-07, ]
  - [22300, -48465.490364241, 1484.34501989829, -46981.1453443427, 984.600258204312, 53.0703, 53.0703, 53.0703, 149470.204239739, 319.377968870773, 408.648862972916, 974.628975824813, -425.143932185409, -50096.2956172149, 7.50618208481703e-07, ]
  - [22400, -48462.501283663, 1494.95765656597, -46967.5436270971, 991.639864672585, 53.0703, 53.0703, 53.0703, 149470.204239739, 804.260817457896, 168.579913086278, 1382.33248500775, 861.870054279659, -50103.7591252752, 9.25469579851522e-07, ]
  - [22500, -48478.9936666311, 1533.80883769025, -46945.1848289408, 1017.41074843189, 53.0703, 53.0703, 53.0703, 149470.204239739, 596.458682448203, 1309.74556185598, 165.678704762058, 313.951780726586, -50069.2398739374, 1.13117778778076e-06, ]
  - [22600, -48457.8533056147, 1516.48050964285, -46941.3727959719, 1005.91646910936, 53.0703, 53.0703, 53.0703, 149470.204239739, 1687.08222257806, 1604.01161028819, 1630.79609614757, 1826.43896129843, -50077.2217516127, 1.37158052711496e-06, ]
  - [22700, -48468.7012502997, 1502.88203860462, -46965.8192116951, 996.896289895005, 53.0703, 53.0703, 53.0703, 149470.204239739, 94.287310161773, -680.462233636384, 90.4025119598637, 872.92165216184, -50082.1318771938, 1.65080583583745e-06, ]
  - [22800, -48465.5710575209, 1519.83144141029, -46945.7396161106, 1008.13921937242, 53.0703, 53.0703, 53.0703, 149470.204239739, 1277.54311317355, 855.049002202256, 1840.91018109661, 1136.67015622179, -50090.2406808441, 1.97328035457892e-06, ]
  - [22900, -48482.0607345686, 1523.29040896443, -46958.7703256042, 1010.43363226247, 53.0703, 53.0703, 53.0703, 149470.204239739, -533.668789221797, -527.222233345114, -189.539599980728, -884.244534339547, -50081.1425887735, 2.343737350267e-06, ]
  - [23000, -48468.59528216, 1504.76595790683, -46963.8293242532, 998.145936982792, 53.0703, 53.0703, 53.0703, 149470.204239739, 861.916535063019, 1145.77638654064, 25.9589511050918, 1414.01426754332, -50072.0576735385, 2.76722450631e-06, ]
  - [23100, -48495.7431437813, 1513.78446453589, -46981.9586792454, 1004.12812025996, 53.0703, 53.0703, 53.0703, 149470.204239739, -1223.5487594505, -1050.97928205623, -1278.72637655807, -1340.9406197372, -50059.6582605833, 3.2491114816967e-06, ]
  - [23200, -48486.4020918004, 1499.12509003697, -46987.2770017634, 994.404219331774, 53.0703, 53.0703, 53.0703, 149470.204239739, -614.466417564312, 29.1450104490934, -947.788809118945, -924.755454023088, -50064.2828415317, 3.79509724138202e-06, ]
  - [23300, -48474.1241156194, 1510.48224451338, -46963.6418711061, 1001.93768161987, 53.0703, 53.0703, 53.0703, 149470.204239739, -203.92248147054, -194.242524407809, -375.960023245225, -41.5648967585864, -50085.2427551395, 4.41121716031674e-06, ]
  - [23400, -48465.6071577342, 1494.93934930256, -46970.6678084317, 991.62772104288, 53.0703, 53.0703, 53.0703, 149470.204239739, 480.854499529426, 291.1644328247, 424.447174016985, 726.951891746594, -50083.1975517462, 5.10384990346721e-06, ]
  - [23500, -48477.6298641441, 1496.00655404777, -46981.6233100963, 992.335622543946, 53.0703, 53.0703, 53.0703, 149470.204239739, 586.903118488315, 208.216668373429, 613.523081555492, 938.969605536026, -50048.1425412043, 5.87972408415916e-06, ]
  - [23600, -48488.0232427338, 1514.31568415789, -46973.7075585759, 1004.48049047711, 53.0703, 53.0703, 53.0703, 149470.204239739, -1201.16853051512, -1838.83135128095, -672.572619176336, -1092.10162108808, -50096.1374189884, 6.74592470306796e-06, ]
  - [23700, -48465.7235269001, 1515.66763792425, -46950.0558889759, 1005.37727256591, 53.0703, 53.0703, 53.0703, 149470.204239739, 1157.31704429934, 1018.47465283601, 1484.87620888635, 968.600271175662, -50093.2651372852, 7.70989937016563e-06, ]
  - [23800, -48474.7904218368, 1515.11620944547, -46959.6742123914, 1005.01149734835, 53.0703, 53.0703, 53.0703, 149470.204239739, 850.29021179576, 463.712617707561, 481.96937633651, 1605.18864134321, -50130.4652779317, 8.77946431192315e-06, ]
  - [23900, -48485.3085525472, 1513.48109458649, -46971.8274579607, 1003.92688798141, 53.0703, 53.0703, 53.0703, 149470.204239739, -1264.40322032969, -832.218816907113, -1588.5146642257, -1372.47617985626, -50117.8304212924, 9.96281016605489e-06, ]
  - [24000, -48474.8449737003, 1482.70566139973, -46992.1393123005, 983.512833933449, 53.0703, 53.0703, 53.0703, 149470.204239739, -56.049991711758, 690.664138053174, -659.554897518808, -199.259215669637, -50081.2674220615, 1.126850756608e-05, ]
  - [24100, -48473.9506253552, 1501.18554810299, -46972.7650772522, 995.770968649909, 53.0703, 53.0703, 53.0703, 149470.204239739, 294.824354089315, 161.696724318851, -398.245730827299, 1121.0220687764, -50048.8246957231, 1.2705512517964e-05, ]
  - [24200, -48469.3452526454, 1514.13851863225, -46955.2067340132, 1004.3629725012, 53.0703, 53.0703, 53.0703, 149470.204239739, 811.371332756029, 469.289978097277, 1542.9268427374, 421.897177433415, -50022.4071537609, 1.42831715710919e-05, ]
  - [24300, -48502.4145676064, 1512.09908980474, -46990.3154778016, 1003.01017236159, 53.0703, 53.0703, 53.0703, 149470.204239739, -2092.55590717988, -2695.10156991313, -1370.29152627482, -2212.2746253517, -50017.769227744, 1.60112267858132e-05, ]
  - [24400, -48485.7162892919, 1504.98098184654, -46980.7353074453, 998.288567317199, 53.0703, 53.0703, 53.0703, 149470.204239739, -982.729247010038, -875.087160670707, -1591.02113972748, -482.079440631927, -50030.9358272216, 1.78998204997854e-05, ]
  - [24500, -48499.5710580961, 1505.05309971562, -46994.5179583804, 998.336404761708, 53.0703, 53.0703, 53.0703, 149470.204239739, -1862.46442773581, -1337.67876605281, -2181.73885639963, -2067.97566075499, -50029.901309468, 1.99594998953344e-05, ]
  - [24600, -48489.6331885312, 1510.76259011426, -46978.8705984169, 1002.12364131746, 53.0703, 53.0703, 53.0703, 149470.204239739, -1518.31714430257, -1140.46880623209, -2555.59865700695, -858.883969668695, -49995.5233443099, 2.2201221370035e-05, ]
  - [24700, -48468.0785884182, 1498.16325170972, -46969.9153367084, 993.766209803891, 53.0703, 53.0703, 53.0703, 149470.204239739, 891.857093113705, 1307.8006981148, 570.305822818353, 797.464758407958, -49982.9928985058, 2.46363547127047e-05, ]
  - [24800, -48475.8811220688, 1523.03818553747, -46952.8429365313, 1010.26632665091, 53.0703, 53.0703, 53.0703, 149470.204239739, 456.376229371974, 228.624218853728, 41.6529867562638, 1098.85148250593, -49958.9745646133, 2.7276687086994e-05, ]
  - [24900, -48479.9357272011, 1481.54250729847, -46998.3932199026, 982.741287013373, 53.0703, 53.0703, 53.0703, 149470.204239739, -290.840725372161, -532.303747723274, 251.89288360989, -592.111312003096, -49968.8002345203, 3.01344268247409e-05, ]
  - [25000, -48480.207291212, 1493.32221382316, -46986.8850773889, 990.555037812748, 53.0703, 53.0703, 53.0703, 149470.204239739, -425.309239220611, -1346.77961843716, -289.653117190536, 360.505017965863, -49979.505898354, 3.322220703125e-05, ]
  - [25100, -48473.2327152872, 1517.23188553637, -46956.0008297508, 1006.41487405488, 53.0703, 53.0703, 53.0703, 149470.204239739, 118.150011793974, -1034.75457756391, 514.244055971714, 874.960556974121, -49997.3192085631, 3.6553089004642e-05, ]
  - [25200, -48481.8355196936, 1525.67567605654, -46956.1598436371, 1012.01583489278, 53.0703, 53.0703, 53.0703, 149470.204239739, -265.681981824186, -416.785503704787, 208.558713615994, -588.819155383766, -49971.8999697116, 4.01405654714096e-05, ]
  - [25300, -48471.5676475495, 1517.96739555414, -46953.6002519953, 1006.90275479938, 53.0703, 53.0703, 53.0703, 149470.204239739, 584.109068584829, 426.537204772807, 43.7533624570192, 1282.03663852467, -49979.8286742425, 4.39985636403039e-05, ]
  - [25400, -48465.8795470791, 1497.60052057023, -46968.2790265089, 993.392937271015, 53.0703, 53.0703, 53.0703, 149470.204239739, 1057.6459310894, 1286.95537909346, 628.52634681926, 1257.4560673555, -50004.9000825856, 4.81414480766634e-05, ]
  - [25500, -48478.7401106376, 1499.65835005828, -46979.0817605794, 994.757942992803, 53.0703, 53.0703, 53.0703, 149470.204239739, -137.654529781356, -968.837613301452, 213.949621667071, 341.924402290316, -49985.4195783473, 5.25840233992879e-05, ]
  - [25600, -48483.9809503145, 1511.47032564831, -46972.5106246662, 1002.59309860685, 53.0703, 53.0703, 53.0703, 149470.204239739, -780.899201443637, -985.453641657103, -574.70832907114, -782.535633602665, -49984.6372967791, 5.7341536801945e-05, ]
  - [25700, -48479.2661273724, 1507.49868202117, -46971.7674453512, 999.958615863046, 53.0703, 53.0703, 53.0703, 149470.204239739, -639.616859517585, -1154.68965086524, -274.805577139058, -489.355350548453, -49980.986876418, 6.24296804015908e-05, ]
  - [25800, -48498.4027158324, 1513.32575980813, -46985.0769560243, 1003.82385084326, 53.0703, 53.0703, 53.0703, 149470.204239739, -2309.21364589417, -2288.85432491839, -2421.36898125518, -2217.41763150894, -49971.022035955, 6.78645934153687e-05, ]
  - [25900, -48493.9379492909, 1511.71346054586, -46982.224488745, 1002.7543755874, 53.0703, 53.0703, 53.0703, 149470.204239739, -1065.55636062166, -1297.39326707203, -1175.17656547883, -724.099249314101, -49966.9195904709, 7.36628641684442e-05, ]
  - [26000, -48484.0505285784, 1498.47754446485, -46985.5729841135, 993.974687431198, 53.0703, 53.0703, 53.0703, 149470.204239739, -663.320733397607, -1131.22421364299, -660.093298335806, -198.644688214027, -49989.8290141251, 7.98415319347201e-05, ]
  - [26100, -48463.866041272, 1504.09174992038, -46959.7742913516, 997.698719288362, 53.0703, 53.0703, 53.0703, 149470.204239739, 1144.14073716648, 1945.99047165633, 1116.10981979796, 370.321920045154, -49981.6057491185, 8.64180886124637e-05, ]
  - [26200, -48456.2695054866, 1474.97405105911, -46981.2954544275, 978.384278620729, 53.0703, 53.0703, 53.0703, 149470.204239739, 1331.91180623665, 1756.80074307514, 1266.84945952822, 972.085216106584, -49986.4820789997, 9.34104802368714e-05, ]
  - [26300, -48475.5106018507, 1501.16201131136, -46974.3485905393, 995.755356153616, 53.0703, 53.0703, 53.0703, 149470.204239739, 198.744249225573, 234.469282999756, -12.4335229967428, 374.1969876737, -49979.7300379091, 0.000100837108331577, ]
  - [26400, -48465.7004091786, 1501.94968461987, -46963.7507245587, 996.277838010962, 53.0703, 53.0703, 53.0703, 149470.204239739, 1744.45474517995, 1552.09421751636, 1935.6623266162, 1745.60769140731, -49974.4395855912, 0.000108716831101108, ]
  - [26500, -48472.4419304179, 1516.23101808234, -46956.2109123356, 1005.75097560779, 53.0703, 53.0703, 53.0703, 149470.204239739, 755.546645837968, 712.310533870351, 791.186190540622, 763.143213102931, -49985.97299406, 0.000117068964466276, ]
  - [26600, -48461.3931123865, 1500.32686349853, -46961.0662488879, 995.201383363515, 53.0703, 53.0703, 53.0703, 149470.204239739, 2267.85606970357, 2721.71252668036, 1879.37429716768, 2202.48138526266, -49969.2468015982, 0.000125913282944476, ]
  - [26700, -48476.3186156996, 1514.68841707459, -46961.630198625, 1004.72773281034, 53.0703, 53.0703, 53.0703, 149470.204239739, 283.21636767331, 72.1267953506523, 308.409569501567, 469.112738167718, -49940.1145331021, 0.000135270020376872, ]
  - [26800, -48469.5552889383, 1512.74354204526, -46956.8117468931, 1003.43765238403, 53.0703, 53.0703, 53.0703, 149470.204239739, 1005.07163246159, 384.115654530063, 1448.47959518396, 1182.61964767076, -49939.697979696, 0.000145159870504403, ]
  - [26900, -48472.8205700161, 1499.14715188128, -46973.6734181349, 994.418853461513, 53.0703, 53.0703, 53.0703, 149470.204239739, 490.527374240088, 82.4948317667835, 23.9940742890746, 1365.09321666441, -49939.8062911144, 0.000155603987394582, ]
  - [27000, -48477.429747789, 1509.92806805852, -46967.5016797305, 1001.57008360645, 53.0703, 53.0703, 53.0703, 149470.204239739, 85.0359482151436, 414.96911268062, -184.667968820223, 24.8067007850379, -49937.6666461508, 0.00016662398572099, ]
  - [27100, -48467.9826791934, 1512.79470459933, -46955.1879745941, 1003.47158968518, 53.0703, 53.0703, 53.0703, 149470.204239739, 636.371764113745, 87.4619273347807, 680.721795638148, 1140.93156936831, -49931.0554302479, 0.000178241940897419, ]
  - [27200, -48478.5079320196, 1508.52420162905, -46969.9837303905, 1000.6388666519, 53.0703, 53.0703, 53.0703, 149470.204239739, 36.3255974024408, -152.540015520508, -59.8525151533982, 321.369322881232, -49903.4464232289, 0.000190480389068545, ]
  - [27300, -48477.5816720151, 1516.5951073831, -46960.986564632, 1005.99248443136, 53.0703, 53.0703, 53.0703, 149470.204239739, 225.878360320925, 69.0430948325852, 366.50127093735, 242.090715192836, -49914.1853244755, 0.000203362326959055, ]
  - [27400, -48499.6912459217, 1504.74807266618, -46994.9431732555, 998.134073290511, 53.0703, 53.0703, 53.0703, 149470.204239739, -1943.07002107799, -1706.49525530121, -2635.0305758153, -1487.68423211746, -49940.2792576099, 0.000216911211583103, ]
  - [27500, -48478.2358094007, 1494.21213463183, -46984.0236747689, 991.145342793233, 53.0703, 53.0703, 53.0703, 149470.204239739, 126.191989118443, -97.4464511279991, 183.823690170042, 292.198728313292, -49888.880822587, 0.000231150959815979, ]
  - [27600, -48476.8435518011, 1483.5489803297, -46993.2945714714, 984.072226813856, 53.0703, 53.0703, 53.0703, 149470.204239739, 300.0177907692, -66.8636237919562, 115.750856550043, 851.166139549513, -49888.2939178506, 0.00024610594782986, ]
  - [27700, -48487.0141390567, 1505.50286071881, -46981.5112783379, 998.634741599793, 53.0703, 53.0703, 53.0703, 149470.204239739, -925.836545868515, -576.78230756593, -1868.64539091718, -332.081939122433, -49916.7988947664, 0.000261801010395495, ]
  - [27800, -48473.1583632434, 1506.09498154381, -46967.0633816996, 999.027508988354, 53.0703, 53.0703, 53.0703, 149470.204239739, 841.038903158183, 1557.65162039187, 230.752893303822, 734.712195778854, -49911.4856855209, 0.000278261440051671, ]
  - [27900, -48482.8767970013, 1520.1753511606, -46962.7014458408, 1008.36734263515, 53.0703, 53.0703, 53.0703, 149470.204239739, -117.628398928469, 399.818106265271, -776.758856299771, 24.0555532490972, -49880.2105403116, 0.000295512986144304, ]
  - [28000, -48478.1427187113, 1518.68034496804, -46959.4623737433, 1007.37567057543, 53.0703, 53.0703, 53.0703, 149470.204239739, -338.82235013227, 524.106504499936, -164.284164422212, -1376.28939047453, -49899.7500504104, 0.00031358185373696, ]
  - [28100, -48459.0079380959, 1511.72910170151, -46947.2788363943, 1002.7647507264, 53.0703, 53.0703, 53.0703, 149470.204239739, 1602.28123812563, 1841.2110009781, 1685.11654281897, 1280.51617057982, -49922.4014513754, 0.000332494702394641, ]
  - [28200, -48472.8984230438, 1499.6494962708, -46973.248926773, 994.752070071532, 53.0703, 53.0703, 53.0703, 149470.204239739, 881.734572449074, 635.621598361124, 1445.82280048789, 563.759318498207, -49931.7057720588, 0.000352278644842627, ]
  - [28300, -48463.3981937163, 1519.30549235286, -46944.0927013634, 1007.79034524221, 53.0703, 53.0703, 53.0703, 149470.204239739, 1637.04265251227, 2058.50055861862, 1504.41996207664, 1348.20743684155, -49928.2938951966, 0.000372961245502164, ]
  - [28400, -48465.3645657157, 1509.72298818866, -46955.6415775271, 1001.43404940274, 53.0703, 53.0703, 53.0703, 149470.204239739, 1119.6491127297, 1878.22716545896, 750.444720916052, 730.275451814079, -49936.3002350893, 0.000394570518904788, ]
  - [28500, -48463.8042135395, 1507.11021085879, -46956.6940026807, 999.700933988781, 53.0703, 53.0703, 53.0703, 149470.204239739, 975.274925805201, 1480.73144385782, 390.043035806929, 1055.05029775085, -49945.0059092802, 0.000417134927987054, ]
  - [28600, -48455.8610180271, 1502.11157364416, -46953.7494443829, 996.385222731485, 53.0703, 53.0703, 53.0703, 149470.204239739, 2060.17353008479, 1792.33562886301, 1791.00185624167, 2597.18310514969, -49947.4948941212, 0.000440683382267422, ]
  - [28700, -48465.3133056286, 1510.58234587353, -46954.7309597551, 1002.00408115889, 53.0703, 53.0703, 53.0703, 149470.204239739, 761.857745124063, -50.5056062679488, 1170.93870062135, 1165.14014101878, -49923.7112358931, 0.000465245235907057, ]
  - [28800, -48474.3173089345, 1507.50046146596, -46966.8168474685, 999.959796209784, 53.0703, 53.0703, 53.0703, 149470.204239739, -469.855812122634, -1863.68760383265, 188.336565453598, 265.783602011149, -49957.4845074747, 0.000490850285656287, ]
  - [28900, -48490.2593612729, 1508.82028706457, -46981.4390742084, 1000.83526694453, 53.0703, 53.0703, 53.0703, 149470.204239739, -1062.65981408923, -701.580886616472, -1477.609164863, -1008.78939078823, -49935.7622881146, 0.000517528768688429, ]
  - [29000, -48474.3108511864, 1471.01069029863, -47003.3001608878, 975.755290093255, 53.0703, 53.0703, 53.0703, 149470.204239739, -271.220952293928, 204.652149404445, -513.55412058782, -504.760885698413, -49931.4401366412, 0.00054531136032273, ]
  - [29100, -48471.2720671696, 1495.71832885987, -46975.5537383097, 992.144436134709, 53.0703, 53.0703, 53.0703, 149470.204239739, 266.689238233873, 468.680621526543, 191.023659327279, 140.363433847797, -49964.7384910793, 0.000574229171638096, ]
  - [29200, -48478.5641702301, 1480.73417099167, -46997.8299992384, 982.205098913087, 53.0703, 53.0703, 53.0703, 149470.204239739, -859.322307917148, -652.860702052881, -1147.23495697573, -777.871264722831, -49991.8997651564, 0.000604313746979337, ]
  - [29300, -48469.493463239, 1488.60140028743, -46980.8920629516, 987.423613404068, 53.0703, 53.0703, 53.0703, 149470.204239739, 706.201506980993, 925.898811302272, 516.223999199296, 676.481710441407, -49981.8404778296, 0.000635597061357593, ]
  - [29400, -48472.7213640468, 1491.32754992029, -46981.3938141265, 989.231931279248, 53.0703, 53.0703, 53.0703, 149470.204239739, 351.878024527731, 7.50399185559099, 847.147792932854, 200.98228879475, -49962.3051845414, 0.000668111517746635, ]
  - [29500, -48484.3833881982, 1516.06945762867, -46968.3139305695, 1005.64380883572, 53.0703, 53.0703, 53.0703, 149470.204239739, -154.214960504595, -562.211387772868, 164.020689294967, -64.4541830358834, -49913.886650411, 0.000701889944276683, ]
  - [29600, -48463.0386611434, 1504.2813479501, -46958.7573131933, 997.824484030733, 53.0703, 53.0703, 53.0703, 149470.204239739, 1636.87649113184, 1774.26753972516, 1716.93340406725, 1419.4285296031, -49922.0218471704, 0.000736965591327429, ]
  - [29700, -48475.4213439267, 1497.10453145275, -46978.316812474, 993.063936259392, 53.0703, 53.0703, 53.0703, 149470.204239739, 364.946753088969, 552.399247961775, 260.438462573565, 282.002548731571, -49930.4375654342, 0.000773372128521878, ]
  - [29800, -48492.8520534037, 1505.52735264933, -46987.3247007544, 998.650987661723, 53.0703, 53.0703, 53.0703, 149470.204239739, -1677.28861815082, -1495.49590485721, -1157.62607101781, -2378.74387857744, -49918.1953970194, 0.00081114364162266, ]
  - [29900, -48485.4646041699, 1508.8308678218, -46976.6337363481, 1000.84228540463, 53.0703, 53.0703, 53.0703, 149470.204239739, -710.560529782241, -819.500889341958, -502.828025904462, -809.3526741003, -49896.5693931784, 0.000850314629332433, ]
  - [30000, -48476.6993082872, 1488.67655576667, -46988.0227525205, 987.473465765398, 53.0703, 53.0703, 53.0703, 149470.204239739, -367.32746523845, -485.756806444055, -697.266499786169, 81.0409105148774, -49932.3816427319, 0.000890920000000001, ]
  - [30100, -48497.472027737, 1532.67365981382, -46964.7983679232, 1016.65775878646, 53.0703, 53.0703, 53.0703, 149470.204239739, -1877.08694266726, -1848.21008823469, -2221.08141311059, -1561.96932665649, -49945.6840794534, 0.000932995068233718, ]
  - [30200, -48484.7718347737, 1506.54587893408, -46978.2259558396, 999.32659961818, 53.0703, 53.0703, 53.0703, 149470.204239739, -99.6808000304454, 294.721815920011, -493.879240006501, -99.8849760048474, -49953.8962711747, 0.000976575551423828, ]
  - [30300, -48470.7726392819, 1512.41816525945, -46958.3544740224, 1003.22182246375, 53.0703, 53.0703, 53.0703, 149470.204239739, 538.350312374678, -101.732038281201, 886.19006442888, 830.592910976358, -49991.4140760858, 0.00102169756617526, ]
  - [30400, -48481.411419638, 1487.52622701789, -46993.8851926201, 986.710426197176, 53.0703, 53.0703, 53.0703, 149470.204239739, -679.984843433369, -279.914819879998, -711.753702613384, -1048.28600780673, -49989.4903431092, 0.00106839762465251, ]
  - [30500, -48484.1832449589, 1512.01886952915, -46972.1643754297, 1002.95696040413, 53.0703, 53.0703, 53.0703, 149470.204239739, -703.530572649738, -754.398052805352, -273.063146273412, -1083.13051887045, -49986.0878595296, 0.00111671263083812, ]
  - [30600, -48471.7942000172, 1524.07033656542, -46947.7238634518, 1010.95097621352, 53.0703, 53.0703, 53.0703, 149470.204239739, 710.257079958291, 846.305843457832, 390.858627895983, 893.606768521052, -49990.4578165555, 0.00116667987670637, ]
  - [30700, -48462.194059528, 1491.92302257539, -46970.2710369526, 989.626922013954, 53.0703, 53.0703, 53.0703, 149470.204239739, 1146.04457431847, 1788.4089743426, 859.292675191314, 790.43207342149, -49978.4401633001, 0.00121833703831365, ]
  - [30800, -48485.5281510689, 1515.78855754274, -46969.7395935262, 1005.45748133543, 53.0703, 53.0703, 53.0703, 149470.204239739, -757.81189135618, -939.269427763956, -454.776169918713, -879.390076385869, -49944.9000858298, 0.00127172217180712, ]
  - [30900, -48482.9186232303, 1511.84286540064, -46971.0757578296, 1002.8402128097, 53.0703, 53.0703, 53.0703, 149470.204239739, -807.490146571572, -280.872700065822, -898.180400605943, -1243.41733904295, -49923.2144185075, 0.00132687370935312, ]
  - [31000, -48471.3588754028, 1512.06501690473, -46959.2938584981, 1002.98757102181, 53.0703, 53.0703, 53.0703, 149470.204239739, 681.328818738377, 420.676674420875, 703.229596490954, 920.080185303301, -49971.3061318381, 0.00138383045498687, ]
  - [31100, -48461.851513977, 1510.5440880788, -46951.3074258982, 1001.978703882, 53.0703, 53.0703, 53.0703, 149470.204239739, 1956.67886592513, 1889.35468771473, 2110.36199857878, 1870.31991148189, -50004.2239973436, 0.00144263158038501, ]
  - [31200, -48471.9054826816, 1519.95941671709, -46951.9460659645, 1008.2241083426, 53.0703, 53.0703, 53.0703, 149470.204239739, 504.198404128202, 1181.27203362646, 145.709274512054, 185.61390424609, -50008.7181639418, 0.00150331662056234, ]
  - [31300, -48457.6004404309, 1493.27929657918, -46964.3211438518, 990.526569815799, 53.0703, 53.0703, 53.0703, 149470.204239739, 2769.16985173663, 2781.60885296911, 2843.09772942931, 2682.80297281148, -50011.2179382766, 0.00156592546949443, ]
  - [31400, -48480.8963638115, 1506.96742370776, -46973.9289401038, 999.606219980994, 53.0703, 53.0703, 53.0703, 149470.204239739, -474.760820858074, -313.361289120475, 284.80715004369, -1395.72832349743, -50031.4112917463, 0.00163049837566735, ]
  - [31500, -48472.2500549606, 1535.04715087231, -46937.2029040883, 1018.2321501023, 53.0703, 53.0703, 53.0703, 149470.204239739, 522.36180701314, 338.707016256345, 817.108474101182, 411.269930681893, -49981.6156029777, 0.00169707593755625, ]
  - [31600, -48486.0261661518, 1515.77432036307, -46970.2518457887, 1005.44803748606, 53.0703, 53.0703, 53.0703, 149470.204239739, -487.750645197414, 286.912019040557, -249.475223563225, -1500.68873106957, -49938.7825882615, 0.00176569909903396, ]
  - [31700, -48466.0459777534, 1493.68614509052, -46972.3598326629, 990.796441809132, 53.0703, 53.0703, 53.0703, 149470.204239739, 771.790137212474, 1037.31129568879, 798.084701987917, 479.974413960717, -49954.2895996598, 0.0018364091447113, ]
[...]
  - [232600, -48484.0915661745, 1487.47340299161, -46996.6181631829, 986.675386803222, 53.0703, 53.0703, 53.0703, 149470.204239739, -770.933602862963, -719.587333991737, -1207.63340295123, -385.580071645919, -50040.0398366472, 0.000216911211583102, ]
  - [232700, -48470.7804663694, 1494.75858419076, -46976.0218821786, 991.507815378518, 53.0703, 53.0703, 53.0703, 149470.204239739, 1236.95002892632, 414.509411169956, 1222.24493438652, 2074.0957412225, -50011.2039851543, 0.000203362326959055, ]
  - [232800, -48469.2751944827, 1535.16956588699, -46934.1056285957, 1018.31335080257, 53.0703, 53.0703, 53.0703, 149470.204239739, 858.38452460447, 242.031052714117, 152.51244887611, 2180.61007222318, -49981.7253371398, 0.000190480389068545, ]
  - [232900, -48463.7150449411, 1525.33859233541, -46938.3764526057, 1011.79223949251, 53.0703, 53.0703, 53.0703, 149470.204239739, 957.184405644334, 1373.94419830396, 354.543206457729, 1143.06581217132, -49997.5325579248, 0.000178241940897418, ]
  - [233000, -48468.3452172935, 1529.6458815273, -46938.6993357662, 1014.64936367432, 53.0703, 53.0703, 53.0703, 149470.204239739, 1049.82817510667, 852.297110504453, 1144.53455748757, 1152.65285732801, -49998.379294183, 0.000166623985720989, ]
  - [233100, -48465.1715212714, 1509.47369274736, -46955.697828524, 1001.26868599155, 53.0703, 53.0703, 53.0703, 149470.204239739, 1601.51304702998, 1473.07618794902, 894.491222187931, 2436.97173095299, -49986.6290471582, 0.000155603987394581, ]
  - [233200, -48470.6812090209, 1493.66503919039, -46977.0161698305, 990.782441779194, 53.0703, 53.0703, 53.0703, 149470.204239739, 550.826026443554, 345.754431604234, 782.893215048052, 523.83043267838, -49997.3012825077, 0.000145159870504403, ]
  - [233300, -48467.7805461444, 1516.48355481916, -46951.2969913252, 1005.91848904499, 53.0703, 53.0703, 53.0703, 149470.204239739, 1332.40301786389, 1386.45191298538, 1442.06698158171, 1168.69015902457, -49995.7034092204, 0.000135270020376871, ]
  - [233400, -48479.4104980855, 1491.27052845503, -46988.1399696304, 989.194107627294, 53.0703, 53.0703, 53.0703, 149470.204239739, -1021.43070848137, -1120.26439323511, -1244.99474442731, -699.032987781689, -50008.8875998903, 0.000125913282944476, ]
  - [233500, -48484.6453044146, 1522.33699763221, -46962.3083067824, 1009.80121255458, 53.0703, 53.0703, 53.0703, 149470.204239739, -628.008441763448, -1318.80920892004, 141.153571534941, -706.369687905243, -49988.4478810399, 0.000117068964466275, ]
  - [233600, -48469.7269738658, 1505.25909200564, -46964.4678818601, 998.473044194735, 53.0703, 53.0703, 53.0703, 149470.204239739, 767.422647661147, 704.515244686094, 1105.44310350085, 492.309594796493, -49992.761479555, 0.000108716831101108, ]
  - [233700, -48476.6651137856, 1512.64417065245, -46964.0209431331, 1003.37173704918, 53.0703, 53.0703, 53.0703, 149470.204239739, -21.2380850881641, -708.000633647948, 44.8508485726188, 599.435529810836, -50025.1721118767, 0.000100837108331576, ]
  - [233800, -48463.7561046107, 1519.71563113073, -46944.04047348, 1008.06239974516, 53.0703, 53.0703, 53.0703, 149470.204239739, 1491.87896522679, 1604.58199045563, 1276.29204405003, 1594.76286117472, -50026.6369961036, 9.34104802368709e-05, ]
  - [233900, -48472.5719315302, 1504.13844735679, -46968.4334841734, 997.729694774065, 53.0703, 53.0703, 53.0703, 149470.204239739, 632.323088623025, 893.961199103688, 975.702698441261, 27.3053683241312, -50046.3642852542, 8.64180886124633e-05, ]
  - [234000, -48487.4718980452, 1498.33173032272, -46989.1401677225, 993.877965550456, 53.0703, 53.0703, 53.0703, 149470.204239739, -1553.37846692402, -1281.66201752189, -1125.11015738455, -2253.36322586563, -50031.8996092651, 7.98415319347196e-05, ]
  - [234100, -48490.5073744829, 1517.14286863822, -46973.3645058447, 1006.35582709496, 53.0703, 53.0703, 53.0703, 149470.204239739, -1012.04764531806, -890.336537591718, -1397.17857935893, -748.627819003531, -50058.2660289343, 7.36628641684439e-05, ]
  - [234200, -48482.4570972455, 1516.00804821317, -46966.4490490323, 1005.60307455526, 53.0703, 53.0703, 53.0703, 149470.204239739, -567.707649922688, -818.133834571025, -680.029249109218, -204.959866087815, -50067.4317221663, 6.78645934153684e-05, ]
  - [234300, -48478.1954437186, 1505.12606609371, -46973.0693776249, 998.384805041788, 53.0703, 53.0703, 53.0703, 149470.204239739, 477.008495932976, -311.440983193701, 893.61206218304, 848.854408809595, -50065.0990319435, 6.24296804015905e-05, ]
  - [234400, -48479.8887048783, 1514.89768889402, -46964.9910159843, 1004.8665476308, 53.0703, 53.0703, 53.0703, 149470.204239739, -731.622583306207, -1246.38059875987, -415.818681362597, -532.668469796146, -50102.2176490283, 5.73415368019447e-05, ]
  - [234500, -48471.5782988955, 1521.81434526868, -46949.7639536268, 1009.45452519741, 53.0703, 53.0703, 53.0703, 149470.204239739, 895.997843287962, 1700.29614869161, 2.61636434121595, 985.081016831059, -50040.0777031546, 5.25840233992875e-05, ]
  - [234600, -48478.6455286042, 1521.442099369, -46957.2034292352, 1009.2076059138, 53.0703, 53.0703, 53.0703, 149470.204239739, 276.092403255338, -473.578638676129, 873.396342581175, 428.459505860968, -50010.9089523229, 4.81414480766631e-05, ]
  - [234700, -48468.2883952478, 1522.46322787967, -46945.8251673681, 1009.88494398668, 53.0703, 53.0703, 53.0703, 149470.204239739, 1141.34394770475, 1106.42409344291, 1678.31807324988, 639.289676421464, -49987.7445515942, 4.39985636403036e-05, ]
  - [234800, -48488.2615610259, 1513.06032107462, -46975.2012399513, 1003.64777921433, 53.0703, 53.0703, 53.0703, 149470.204239739, -1052.72078302349, -542.9380000828, -1745.67910172441, -869.545247263256, -50006.20058544, 4.01405654714093e-05, ]
  - [234900, -48487.2153479136, 1508.86352221676, -46978.3518256968, 1000.86394581732, 53.0703, 53.0703, 53.0703, 149470.204239739, -1142.04416967421, -279.104960206736, -1570.15606191658, -1576.87148689931, -49967.9332460357, 3.65530890046418e-05, ]
  - [235000, -48470.5390303311, 1500.43668900927, -46970.1023413218, 995.274233155698, 53.0703, 53.0703, 53.0703, 149470.204239739, 257.461008850192, 175.790735628286, 660.856874651604, -64.264583729307, -49968.1318785969, 3.32222070312498e-05, ]
  - [235100, -48479.0677973976, 1522.3960556518, -46956.6717417458, 1009.84038709996, 53.0703, 53.0703, 53.0703, 149470.204239739, 213.633177175362, 262.252034194936, 323.956065054506, 54.6914322766439, -49920.5901475978, 3.01344268247407e-05, ]
  - [235200, -48486.3537373772, 1505.73993902902, -46980.6137983482, 998.792001106389, 53.0703, 53.0703, 53.0703, 149470.204239739, -316.390829161036, -173.366441763364, 196.447842926713, -972.25388864646, -49922.0091643951, 2.72766870869938e-05, ]
  - [235300, -48489.4945483697, 1505.53843248405, -46983.9561158856, 998.658337171423, 53.0703, 53.0703, 53.0703, 149470.204239739, -1392.16946987065, -1489.28191236508, -1360.94752115907, -1326.27897608782, -49957.8421396932, 2.46363547127045e-05, ]
  - [235400, -48495.7095205046, 1506.57691468852, -46989.1326058161, 999.347186349315, 53.0703, 53.0703, 53.0703, 149470.204239739, -1698.87424264832, -1607.94191318615, -2073.38514770155, -1415.29566705728, -49967.6573514805, 2.22012213700348e-05, ]
  - [235500, -48478.1938857512, 1495.82488243028, -46982.3690033209, 992.215115573472, 53.0703, 53.0703, 53.0703, 149470.204239739, 455.511136481555, 657.487592233667, -56.5520183450848, 765.597835556089, -50007.959529413, 1.99594998953343e-05, ]
  - [235600, -48492.2300013328, 1523.26725927583, -46968.962742057, 1010.41827654053, 53.0703, 53.0703, 53.0703, 149470.204239739, -1432.49474350664, -1539.63216412311, -1251.55681169426, -1506.29525470255, -49997.6787511705, 1.78998204997852e-05, ]
  - [235700, -48488.2431615544, 1507.00827367982, -46981.2348878746, 999.633316708844, 53.0703, 53.0703, 53.0703, 149470.204239739, -592.84767309792, -1074.92750057756, -277.749874130209, -425.865644585993, -49976.3262501278, 1.6011226785813e-05, ]
  - [235800, -48477.9220067222, 1499.53470000002, -46978.3873067222, 994.675923059663, 53.0703, 53.0703, 53.0703, 149470.204239739, -442.109930882702, -868.579679009941, -48.8384176103783, -408.911696027789, -49982.7876952426, 1.42831715710918e-05, ]
  - [235900, -48464.8786894925, 1490.34001931426, -46974.5386701782, 988.576879470779, 53.0703, 53.0703, 53.0703, 149470.204239739, 1368.91828485674, 1505.07856251477, 2126.01327938209, 475.663012673349, -50003.1467776133, 1.27055125179639e-05, ]
  - [236000, -48480.1567653793, 1501.4242132889, -46978.7325520904, 995.929280767725, 53.0703, 53.0703, 53.0703, 149470.204239739, -719.712378226915, -1322.49358442233, -793.133145062946, -43.5104051954687, -50021.2354307444, 1.12685075660799e-05, ]
  - [236100, -48454.5137563086, 1528.26297843107, -46926.2507778775, 1013.7320521818, 53.0703, 53.0703, 53.0703, 149470.204239739, 1849.19253549353, 2239.04004520451, 1629.23395529906, 1679.30360597701, -50001.6583017774, 9.96281016605479e-06, ]
  - [236200, -48477.8786606136, 1530.30529018498, -46947.5733704286, 1015.08676463293, 53.0703, 53.0703, 53.0703, 149470.204239739, 262.715697574685, 577.206105477925, 424.974084965238, -214.033097719108, -49986.861741499, 8.77946431192305e-06, ]
  - [236300, -48473.4522350633, 1495.81613651229, -46977.636098551, 992.209314204521, 53.0703, 53.0703, 53.0703, 149470.204239739, 879.22556394713, 190.053252937497, 1589.15759995464, 858.465838949251, -49960.6771746254, 7.70989937016554e-06, ]
  - [236400, -48475.8924060866, 1495.29374243098, -46980.5986636556, 991.862798171896, 53.0703, 53.0703, 53.0703, 149470.204239739, 185.893052688018, 410.484814133387, 438.181679841235, -290.987335910568, -49946.8186209548, 6.74592470306788e-06, ]
  - [236500, -48487.6491143369, 1496.53436394948, -46991.1147503874, 992.685731015049, 53.0703, 53.0703, 53.0703, 149470.204239739, -767.327322638097, -1016.23340332847, -1069.79734001937, -215.951224566443, -49914.0814339166, 5.87972408415909e-06, ]
  - [236600, -48480.7805219526, 1503.55237792018, -46977.2281440325, 997.340941410881, 53.0703, 53.0703, 53.0703, 149470.204239739, -380.828757977532, 51.0342216116465, -361.064856037733, -832.455639506513, -49913.0621205442, 5.10384990346715e-06, ]
  - [236700, -48470.7431401097, 1502.66057105285, -46968.0825690568, 996.749385364228, 53.0703, 53.0703, 53.0703, 149470.204239739, -72.0945102346428, 382.249360278983, -104.798117834027, -493.734773148888, -49948.2493226555, 4.41121716031669e-06, ]
  - [236800, -48475.2231460714, 1529.36272366858, -46945.8604224028, 1014.4615385413, 53.0703, 53.0703, 53.0703, 149470.204239739, 367.887651213031, 758.389937900567, 453.233909106435, -107.960893367902, -49966.2961278866, 3.79509724138197e-06, ]
  - [236900, -48472.8236720132, 1488.13159174, -46984.6920802732, 987.111978567889, 53.0703, 53.0703, 53.0703, 149470.204239739, -568.273540479053, -747.275246577486, -463.179104312405, -494.366270547268, -50022.2502207151, 3.24911148169665e-06, ]
  - [237000, -48472.7430376683, 1517.4050887441, -46955.3379489242, 1006.52976373401, 53.0703, 53.0703, 53.0703, 149470.204239739, 497.638564059189, 38.6268364584483, 521.522153239908, 932.766702479211, -50031.1269497429, 2.76722450630996e-06, ]
  - [237100, -48458.8530027364, 1507.46794641736, -46951.385056319, 999.938228228745, 53.0703, 53.0703, 53.0703, 149470.204239739, 1987.71395025432, 1992.27205585114, 2091.17460917644, 1879.69518573538, -49995.0056416212, 2.34373735026696e-06, ]
  - [237200, -48457.2778852197, 1503.22840413825, -46954.0494810815, 997.126042135405, 53.0703, 53.0703, 53.0703, 149470.204239739, 2008.75611911981, 1649.89787585823, 2452.28040575429, 1924.09007574691, -49982.9782811488, 1.97328035457889e-06, ]
  - [237300, -48476.1222164595, 1507.18803739875, -46968.9341790608, 999.75255812624, 53.0703, 53.0703, 53.0703, 149470.204239739, -146.964457845246, 3.40629397322401, -37.6342528533466, -406.665414655616, -49970.636024111, 1.65080583583743e-06, ]
  - [237400, -48473.3516587147, 1498.30888028584, -46975.0427784289, 993.862808594415, 53.0703, 53.0703, 53.0703, 149470.204239739, 383.440771714835, -6.3342003364377, 550.642080823099, 606.014434657841, -49940.3927094537, 1.37158052711493e-06, ]
  - [237500, -48485.7251344649, 1499.25047375115, -46986.4746607138, 994.487389238835, 53.0703, 53.0703, 53.0703, 149470.204239739, -879.282980504186, -909.593089755666, -381.37874280181, -1346.87710895508, -49947.1253843327, 1.13117778778074e-06, ]
  - [237600, -48498.8534969911, 1520.5198332068, -46978.3336637843, 1008.59584551493, 53.0703, 53.0703, 53.0703, 149470.204239739, -2280.00622079727, -1636.50381946708, -1920.0939779555, -3283.42086496923, -49968.8794297101, 9.25469579851505e-07, ]
  - [237700, -48471.8539041535, 1499.91955637522, -46971.9343477783, 994.931207162292, 53.0703, 53.0703, 53.0703, 149470.204239739, 695.408291687922, 705.124112786577, 1029.47390507285, 351.626857204336, -49964.19272994, 7.50618208481688e-07, ]
  - [237800, -48484.9558829692, 1511.63357718852, -46973.3223057807, 1002.70138711559, 53.0703, 53.0703, 53.0703, 149470.204239739, -488.376707421589, -500.996645291336, -66.259415255628, -897.874061717809, -49970.8907520615, 6.03067824188189e-07, ]
  - [237900, -48501.6917897916, 1519.27585960185, -46982.4159301897, 1007.77068915559, 53.0703, 53.0703, 53.0703, 149470.204239739, -2390.81200327257, -1996.35040113238, -2264.68990577344, -2911.3957029119, -50006.2244048768, 4.79535684391034e-07, ]
  - [238000, -48472.8587021847, 1506.38272227769, -46966.4759799071, 999.218374048076, 53.0703, 53.0703, 53.0703, 149470.204239739, 582.584701779503, 531.660116982398, 498.807006584538, 717.286981771577, -49993.6208653653, 3.77003171839991e-07, ]
  - [238100, -48482.124575087, 1513.42733709411, -46968.6972379929, 1003.89122939789, 53.0703, 53.0703, 53.0703, 149470.204239739, -353.571923103781, -842.677175604009, 171.684882077773, -389.723475785108, -49984.7431880189, 2.92706567484834e-07, ]
  - [238200, -48468.3881475491, 1496.89443083731, -46971.4937167118, 992.924571679433, 53.0703, 53.0703, 53.0703, 149470.204239739, 1183.72553637947, 531.173667043037, 1664.7518662523, 1355.25107584309, -49979.8795493039, 2.24127575334843e-07, ]
  - [238300, -48467.0286061963, 1490.87101951209, -46976.1575866842, 988.929104138813, 53.0703, 53.0703, 53.0703, 149470.204239739, 1361.33155601842, 1421.28321234033, 1318.98068739666, 1343.73076831828, -49978.1527823745, 1.68983596840973e-07, ]
  - [238400, -48479.9996074411, 1508.54731212551, -46971.4522953156, 1000.65419637678, 53.0703, 53.0703, 53.0703, 149470.204239739, -407.371455270294, -1020.07817293472, -443.418432020442, 241.382239144279, -50003.630459068, 1.25217752321901e-07, ]
  - [238500, -48477.6599112734, 1503.54712743081, -46974.1127838426, 997.337458640287, 53.0703, 53.0703, 53.0703, 149470.204239739, -150.541906891883, -236.893131978204, -263.363136646567, 48.6305479491271, -49983.644464746, 9.09886469429854e-08, ]
  - [238600, -48480.6955923423, 1501.00103104954, -46979.6945612928, 995.648574236184, 53.0703, 53.0703, 53.0703, 149470.204239739, -372.935137158299, 85.1733860890668, -170.870255026802, -1033.10854253717, -50021.9719915706, 6.46598787448784e-08, ]
  - [238700, -48480.9825472168, 1481.66650107338, -46999.3160461434, 982.823534941691, 53.0703, 53.0703, 53.0703, 149470.204239739, -721.835374383201, -280.347794294099, -817.015125460961, -1068.14320339455, -50045.9375714521, 4.47892862063161e-08, ]
  - [238800, -48479.0430509985, 1507.72560265224, -46971.3174483462, 1000.10913754699, 53.0703, 53.0703, 53.0703, 149470.204239739, 215.866985098078, -199.019144483747, 865.027534073343, -18.4074342953609, -50038.7325234449, 3.01179328132691e-08, ]
  - [238900, -48478.5267558282, 1503.43636785199, -46975.0903879762, 997.26398925922, 53.0703, 53.0703, 53.0703, 149470.204239739, 183.225504110387, 345.312532748104, 199.924307343456, 4.43967223959704, -50076.3806998806, 1.95588260943479e-08, ]
  - [239000, -48459.4382385996, 1501.75791249971, -46957.6803260999, 996.150631144302, 53.0703, 53.0703, 53.0703, 149470.204239739, 1696.97866598954, 1276.15688774103, 1915.94535831632, 1898.83375191128, -50045.3846963457, 1.21853685699994e-08, ]
  - [239100, -48476.3965834005, 1505.67897847877, -46970.7176049217, 998.751564568584, 53.0703, 53.0703, 53.0703, 149470.204239739, 33.85745510931, 124.267806748335, -459.213040664573, 436.517599244171, -50040.0939514159, 7.21953805066191e-09, ]
  - [239200, -48485.6671546556, 1490.02917872366, -46995.6379759319, 988.370691743756, 53.0703, 53.0703, 53.0703, 149470.204239739, -1071.68098583359, -1452.73385965689, -384.244326522836, -1378.06477132105, -50066.4972256197, 4.01979470665194e-09, ]
  - [239300, -48478.4061990192, 1516.64008464418, -46961.766114375, 1006.02231888513, 53.0703, 53.0703, 53.0703, 149470.204239739, 379.516539724999, 337.348245806299, -114.031194426312, 915.232567795009, -50037.441043867, 2.06871232013228e-09, ]
  - [239400, -48485.6543216939, 1502.87806243831, -46982.7762592556, 996.893652412259, 53.0703, 53.0703, 53.0703, 149470.204239739, -921.102231809615, -1296.62586517127, -1637.0231738417, 170.342343584128, -50073.712375546, 9.60331117066315e-10, ]
  - [239500, -48479.9342493765, 1512.46416133635, -46967.4700880401, 1003.25233272153, 53.0703, 53.0703, 53.0703, 149470.204239739, -442.568078122268, -1314.15603569103, 69.8779155324346, -83.4261142082081, -50074.1488409809, 3.87229564589803e-10, ]
  - [239600, -48470.7478424564, 1504.4265881991, -46966.3212542573, 997.920825234933, 53.0703, 53.0703, 53.0703, 149470.204239739, 878.813864012745, 621.19221221773, 811.346803328326, 1203.90257649219, -50030.2409915273, 1.27312506734493e-10, ]
  - [239700, -48487.9453030448, 1494.51787300133, -46993.4274300434, 991.348146099418, 53.0703, 53.0703, 53.0703, 149470.204239739, -1888.58750424914, -1290.89886882517, -1847.03108436835, -2527.83255955391, -50058.7764832948, 3.03129989146573e-11, ]
  - [239800, -48475.8444633022, 1509.18555480579, -46966.6589084964, 1001.07755745482, 53.0703, 53.0703, 53.0703, 149470.204239739, 91.5611671112872, 844.497758731604, -469.856403816905, -99.9578535808297, -50054.9908423297, 4.00518903939475e-12, ]
  - [239900, -48463.3593957724, 1523.68105327641, -46939.678342496, 1010.69275563694, 53.0703, 53.0703, 53.0703, 149470.204239739, 841.049679890957, 1075.88979329149, 664.761656199288, 782.497590182085, -50076.2958857932, 1.25580539685001e-13, ]
  - [240000, -48467.5445484903, 1528.07877720618, -46939.4657712842, 1013.60986726444, 53.0703, 53.0703, 53.0703, 149470.204239739, 1261.18385404749, 1117.46983858892, 858.280628365731, 1807.80109518782, -50077.4307468451, 0, ]
...
Loop time of 130.861 on 64 procs for 100000 steps with 11664 atoms

Performance: 66.024 ns/day, 0.364 hours/ns, 764.169 timesteps/s, 8.913 Matom-step/s
70.5% CPU use with 64 MPI tasks x 1 OpenMP threads

MPI task timing breakdown:
Section |  min time  |  avg time  |  max time  |%varavg| %total
---------------------------------------------------------------
Pair    | 63.936     | 65.538     | 66.707     |   8.2 | 50.08
Neigh   | 0.2013     | 0.20709    | 0.22015    |   0.8 |  0.16
Comm    | 18.917     | 20.227     | 21.91      |  15.3 | 15.46
Output  | 0.35027    | 0.40037    | 0.40242    |   1.0 |  0.31
Modify  | 13.258     | 14.037     | 42.948     |  97.3 | 10.73
Other   |            | 30.45      |            |       | 23.27

Nlocal:         182.25 ave         198 max         170 min
Histogram: 2 6 8 14 7 11 11 3 0 2
Nghost:           1275 ave        1287 max        1258 min
Histogram: 2 0 1 7 12 11 13 9 6 3
Neighs:        7222.23 ave        8046 max        6607 min
Histogram: 1 6 10 8 19 12 4 2 1 1

Total # of neighbors = 462223
Ave neighs/atom = 39.628172
Neighbor list builds = 549
Dangerous builds = 0
#------------------------------------------------------------------------------#
Total wall time: 0:04:56
