LAMMPS data file via write_data, version 2 Aug 2023, timestep = 1900000, units = metal

11664 atoms
1 atom types

-0.5824178492794303 52.494663052043705 xlo xhi
-0.5819527079871172 52.49512819333344 ylo yhi
-0.5830543441108098 52.4940265572105 zlo zhi

Masses

1 55.847

Atoms # atomic

2 1 1.0745096393784694 1.7204870675431994 0.01680994244753009 0 0 0
651 1 2.6719062770064483 0.33829058235850107 1.4576255678373262 0 0 0
1981 1 -0.35890431640811665 3.0393488798451833 7.406173061671414 0 0 0
4 1 3.7423445541614315 1.8303974127689746 -0.22236178287380903 0 0 0
653 1 5.370630326315523 0.3929795603016035 1.2722221270160476 0 0 0
652 1 4.161792137507257 1.7987650615360802 3.165945707590736 0 0 0
6 1 6.85834100605827 1.7887046879482549 -0.06089278392105879 0 0 0
655 1 8.250368220598519 0.3783900611309533 1.5392058732707028 0 0 0
8 1 9.64798860092421 1.5104839432007844 -0.13239231503006615 0 0 0
657 1 11.15405176397101 0.23469059115901258 1.217041476318537 0 0 0
10 1 12.580590354599059 1.8373324632381824 0.21547482175447197 0 0 0
659 1 14.246335828093658 0.24897563340002205 1.4233651369073947 0 0 0
12 1 15.633996878806432 2.073027026188374 -0.15945189960155548 0 0 0
661 1 16.79513327644749 0.2667718237829779 1.2575363424239603 0 0 0
14 1 18.742632829985176 1.5170090742362254 -0.038546593572275634 0 0 0
16 1 21.54943744418944 1.6489978314182583 -0.01936709316041907 0 0 0
663 1 20.210029961172726 0.0980091912065888 1.5448844061777272 0 0 0
665 1 22.96596193532358 0.08338842330282825 1.5376521352829498 0 0 0
18 1 24.43518018753222 1.8080151107067457 0.20139010217737507 0 0 0
2718 1 24.65152195366582 10.446713998816962 11.945736764963074 0 0 0
38 1 1.0723673719624691 4.676572374455833 0.09863761687385963 0 0 0
687 1 2.6185137226239563 2.9208644757034814 1.5588016361470052 0 0 0
685 1 -0.1850817773917463 2.8525895328742608 1.6643669130800913 0 0 0
721 1 -0.4681149960671339 6.388310783803634 1.2664616526299397 0 0 0
689 1 5.344216749032287 3.2468811537553814 1.4461147972937014 0 0 0
40 1 3.7270096007146893 4.479010842826757 0.07463461495464885 0 0 0
691 1 8.31609669728704 3.194087971643786 1.488359177518079 0 0 0
42 1 6.718905622721296 4.548803019133499 -0.11660213507475348 0 0 0
693 1 10.870999954180494 3.1271547920817366 1.1755821814910465 0 0 0
44 1 9.679501406003544 4.867876098872787 -0.19303716132998738 0 0 0
46 1 12.521387270523666 4.672872446196036 0.0717892160844611 0 0 0
695 1 14.044684684939718 3.276115474418428 1.649175613258382 0 0 0
48 1 15.419828946998468 4.60451535433364 -0.15128404281136337 0 0 0
696 1 15.715228525660589 4.810809598185375 2.9676756266383104 0 0 0
697 1 17.331818464710143 3.153742186120171 1.3868838058885937 0 0 0
50 1 19.002965574245707 4.6057693517567495 -0.04187979718738255 0 0 0
699 1 20.08322467207016 3.154654647231478 1.5111723802185293 0 0 0
52 1 21.591416978698543 4.77161349728476 -0.25748524539889917 0 0 0
701 1 22.971613039668256 3.273532810764631 1.4576206099174254 0 0 0
54 1 24.424744567680712 4.801649272486997 -0.05971446878318809 0 0 0
723 1 2.5581757435546275 6.257433835760411 1.429102544264857 0 0 0
74 1 0.9853713433823688 7.765587308539036 -0.2730498367076186 0 0 0
759 1 2.3427354398412277 9.203840998567669 1.3851745020419801 0 0 0
2753 1 23.255928517798775 12.0550509851692 10.31319578134937 0 0 0
725 1 5.331775623337976 6.222852466902077 1.4033559067274626 0 0 0
76 1 3.9475867170756516 7.398791491126452 -0.18037648209285356 0 0 0
761 1 5.289960562214398 8.947888197677875 1.1181086339970974 0 0 0
727 1 8.231353466858616 5.977576192494211 1.5607330516130151 0 0 0
78 1 6.816895867875741 7.546128381134267 -0.3086349477040396 0 0 0
763 1 8.09470970087552 9.194992831814684 1.2102745547142584 0 0 0
729 1 11.103391219475556 6.360774821363218 1.386410829140891 0 0 0
80 1 9.639258592890146 7.670374096735662 -0.10850466631740852 0 0 0
765 1 11.335214936972172 9.05399855668815 1.1458291894857422 0 0 0
82 1 12.711151057272021 7.527151093397839 -0.06417972408450978 0 0 0
731 1 14.103524741593803 5.925139179564037 1.3482598465469133 0 0 0
84 1 15.61532151676478 7.498999537760168 -0.2508503633988112 0 0 0
767 1 14.169753075250517 9.04112684110858 1.2248265219701335 0 0 0
732 1 15.675453484946406 7.599789680241214 2.61038002430176 0 0 0
733 1 17.21749646445005 5.829716451572158 1.1481982144110152 0 0 0
86 1 18.631707191564807 7.750525221055085 -0.06070762373472616 0 0 0
769 1 17.139155714258134 9.047077384389636 1.3713626251475126 0 0 0
735 1 20.30911292095993 6.427724098049835 1.4565302197045344 0 0 0
88 1 21.525533133433782 7.679355126066245 -0.29258383732920645 0 0 0
771 1 20.352819825333174 9.225942787317269 1.2963277196931577 0 0 0
737 1 22.922195898949706 6.169396013021199 1.3860689450543755 0 0 0
90 1 24.456295261546316 7.556722966378148 -0.27363635915489215 0 0 0
773 1 23.16209090196931 8.94006586685318 1.1844017764489094 0 0 0
2751 1 20.380384364650304 12.0283267343931 10.167757737882143 0 0 0
110 1 0.7788535282461106 10.763873454492515 -0.10210404755294933 0 0 0
795 1 2.1644286233162955 12.068277858119176 1.6154056915107633 0 0 0
112 1 3.7007271017146905 10.688098983027901 0.023839330110362433 0 0 0
797 1 5.4731919892795124 12.230489371007241 1.2173060619251388 0 0 0
114 1 6.3802601572821676 10.61994194016703 -0.23234336851701548 0 0 0
799 1 8.258040375638737 11.958645371832834 1.6975073344393028 0 0 0
116 1 9.704042933694039 10.66536116565284 0.13483798059608876 0 0 0
801 1 11.350677304620557 12.117830334762173 1.4555250220832434 0 0 0
118 1 12.782219590907461 10.8484389223223 -0.09013334041143856 0 0 0
803 1 14.233695821139435 11.971498711450518 1.6903278764362284 0 0 0
120 1 15.57702526363013 10.738103077730573 0.07261081954475801 0 0 0
122 1 18.437470345568265 10.936253983706996 0.23119138499662595 0 0 0
805 1 17.04074192933164 12.143066180274877 1.7025816831370673 0 0 0
124 1 21.65485876236761 10.808828435393133 -0.14444798336198872 0 0 0
807 1 20.25172511363443 11.995714164688394 1.4771547073237667 0 0 0
809 1 23.043370199676296 12.213972179678365 1.5238845731308754 0 0 0
126 1 24.77390645026232 10.61823176929224 0.12478086768473362 0 0 0
650 1 1.2902267005705137 1.4585849606264722 3.055703836605673 0 0 0
1299 1 2.4981413761569264 0.015633721825863423 4.683326082253995 0 0 0
1298 1 1.1070629805555685 1.603800892424006 5.976435233731191 0 0 0
1297 1 -0.4251181766318525 0.22083753825201458 4.526815503406125 0 0 0
1301 1 5.501091949846112 0.16698786162333634 4.57505176946564 0 0 0
1300 1 4.0261514589561145 1.7053858365024905 5.920545054307112 0 0 0
654 1 6.6130863253626595 1.9103213019241978 3.0150018734248 0 0 0
1303 1 8.231132056685682 0.25303536171497765 4.441779236602364 0 0 0
1302 1 6.947677047597657 1.395755552878219 5.976513646359054 0 0 0
656 1 9.65063744299404 1.616145283850075 3.0524050699339087 0 0 0
1305 1 11.426854853121414 0.3828922643285051 4.51974854968195 0 0 0
1304 1 9.72390654601042 1.6623895742989534 5.82084299121164 0 0 0
658 1 12.38938604777738 1.9312777036202307 2.7144484442045727 0 0 0
660 1 15.648887293803458 1.9517836743600077 2.8071610623825323 0 0 0
1307 1 14.272515076770551 0.3425301538629313 4.255674736036714 0 0 0
1308 1 15.747937511382766 1.749293579965021 5.9316878776194075 0 0 0
1306 1 12.900705493929095 1.8373024899081716 5.978252514116194 0 0 0
662 1 18.651795523369046 1.6948867547104856 2.764968695981076 0 0 0
1309 1 16.925919485042883 0.27618540961096116 4.392941817407016 0 0 0
1310 1 18.72448624901996 1.5049647242018933 5.788468269064251 0 0 0
664 1 21.673848874196608 1.641398442853185 3.008618870648636 0 0 0
1311 1 20.24678366958223 -0.03340947956593132 4.499272284165576 0 0 0
1312 1 21.86867240395426 1.4869432559994795 5.79597298667565 0 0 0
666 1 24.187451641279623 1.9545452329217619 3.1545979388422603 0 0 0
1313 1 23.202994965294845 0.05441639788353014 4.409269154688155 0 0 0
1314 1 24.55506663456651 1.4319753125508385 5.9450465048863 0 0 0
686 1 0.9864174211023564 4.646401694314425 2.948120253595375 0 0 0
1335 1 2.7569693208468307 3.2334445017330715 4.633683776355267 0 0 0
1334 1 0.9831336344926427 4.357525819898851 5.965693323664715 0 0 0
1333 1 -0.4438355277716119 2.975662608813573 4.269422523964518 0 0 0
688 1 4.102574346776633 4.7502278891368634 2.939959163289394 0 0 0
1337 1 5.320677535578544 3.3226374847237423 4.6428457657116855 0 0 0
1336 1 4.011970015698179 4.779358479220856 5.882126245555802 0 0 0
690 1 6.719566275425771 4.595681147856278 3.009174893166181 0 0 0
1339 1 8.213142364104229 3.1687508453074416 4.622101327008117 0 0 0
1338 1 6.587634172676278 4.997322443976109 5.960738477443761 0 0 0
692 1 9.684809038850183 4.522850472968652 3.028709991690965 0 0 0
1341 1 11.111826169303843 3.1325261735115983 4.505422106221836 0 0 0
1340 1 9.905936042446056 4.913805598479072 5.838267329096678 0 0 0
694 1 12.611057857021198 4.562880056436747 2.9820756129827957 0 0 0
1343 1 14.270735756264564 3.426145689319241 4.276262376716244 0 0 0
1344 1 15.83588224249397 4.907940815278068 5.631818124838735 0 0 0
1342 1 12.491278813651059 4.879860799148954 5.546075682731955 0 0 0
698 1 18.608533605509724 4.6575818221977 2.8309045120953105 0 0 0
1345 1 17.23128182485535 2.9670186846766344 4.350206712418681 0 0 0
1346 1 18.676837050945792 4.75850186338733 5.578712605274627 0 0 0
700 1 21.477030031113987 4.619308027021935 2.8559199132538695 0 0 0
1347 1 20.109901671602625 2.9228147640754614 4.447646237760565 0 0 0
1348 1 21.314262324791944 4.939871502650165 5.987384602831475 0 0 0
702 1 24.660843335333293 4.702611422100818 2.671765516030547 0 0 0
1349 1 22.784392138939893 3.463416806611993 4.66046445448984 0 0 0
1350 1 24.481469228962933 4.840103502124015 5.7128249522007915 0 0 0
1385 1 23.01291851772363 6.043095695277516 4.191917441903424 0 0 0
1371 1 2.5228702965463996 6.057770340217072 4.395412848381229 0 0 0
722 1 1.0105312270425384 7.365534063567165 2.8582682558891555 0 0 0
1407 1 2.2720648839667192 9.123990204704663 4.428864503856543 0 0 0
1370 1 1.0000650366604016 7.699899804025106 5.878424952917929 0 0 0
1405 1 -0.44598115039805597 8.959569930666369 4.47762095238515 0 0 0
2629 1 -0.39632148699000935 3.3489771284575185 10.275558119187863 0 0 0
1373 1 5.3861852045942245 6.322947288744479 4.3229862459696795 0 0 0
724 1 3.7810025325549788 7.876844427499762 2.7942821845536754 0 0 0
1409 1 5.197158861959353 9.07354569584371 4.451265397045868 0 0 0
1372 1 3.7511573469306434 7.849386248240071 5.830849148971204 0 0 0
1375 1 8.238164334297212 6.415334767547911 4.058413953704658 0 0 0
726 1 6.632552120843612 7.75656355787563 2.71757918318282 0 0 0
1411 1 8.285826280566626 9.074762899797646 4.119820080374026 0 0 0
1377 1 11.12440896030331 6.4422418289957415 4.2276001864001405 0 0 0
728 1 9.77237034746809 7.879740121648913 2.695593092019523 0 0 0
1413 1 11.297524666927128 8.846387965211658 4.240564122058707 0 0 0
730 1 12.893477930714553 7.591064365308226 2.7272519788416387 0 0 0
1379 1 14.15172944650077 6.243820647487628 4.279830560448978 0 0 0
1415 1 14.351859130214466 8.9599276988769 4.322112079119319 0 0 0
1380 1 15.707135305650617 7.660285773273728 5.87769740850321 0 0 0
1381 1 17.130134418988806 6.331438270878384 4.158194024866737 0 0 0
734 1 18.59081385402786 7.591238886424129 2.7794429515743517 0 0 0
1417 1 17.118764450872245 8.942027259041131 4.331232807357582 0 0 0
1382 1 18.569996096707957 7.635486048304809 5.80837433225334 0 0 0
1383 1 20.243538478826395 6.383899350229124 4.375289112528872 0 0 0
736 1 21.749338987219563 7.693578415559141 2.9872375346785542 0 0 0
1384 1 21.688727370381503 7.79816226652032 5.977604407819768 0 0 0
1419 1 20.03966315495777 9.129394183807598 4.3517388094055836 0 0 0
738 1 24.7119045662021 7.634604173919216 2.8664813817133465 0 0 0
1421 1 23.213341449639547 9.007281117813783 4.396463975324272 0 0 0
1386 1 24.585982517514694 7.633466722749313 5.900142580832566 0 0 0
649 1 -0.3855683202936791 0.06753164049200755 1.5635640658054624 0 0 0
758 1 0.7727517716752137 10.549920658362856 2.9948075542703747 0 0 0
1443 1 2.2837975351251814 11.999981465743668 4.2387985024022985 0 0 0
1406 1 0.7741856317285067 10.626813960917282 6.091371042443362 0 0 0
760 1 3.794053900490561 10.653587469185258 2.898635998918187 0 0 0
1445 1 5.492285154862449 11.802555638494225 4.404441798802615 0 0 0
1408 1 3.6672146088408866 10.608923231034757 6.117587917667951 0 0 0
762 1 6.595631411518145 10.542529313330052 2.6816697894869996 0 0 0
1447 1 8.135013835080356 11.678334018990578 4.3406441589497655 0 0 0
1410 1 6.726172675629536 10.460833237087956 6.263430649111532 0 0 0
764 1 10.006668431287709 10.653992825497909 2.9222542627072072 0 0 0
1449 1 11.439797079981386 12.051642705295185 4.285947311261841 0 0 0
1412 1 9.846235053876786 10.149932374600729 5.673814979614933 0 0 0
1414 1 12.893561392939718 10.559537963529037 5.735937293803666 0 0 0
766 1 12.687671409782212 10.32438231342772 2.8286567864989176 0 0 0
768 1 15.591324558013813 10.483389223292942 2.9072249247656146 0 0 0
1451 1 14.232572195616918 11.97666452530637 4.2790526091953 0 0 0
1416 1 15.699428327097511 10.551666900987763 5.801823056958364 0 0 0
770 1 18.596499366831942 10.591745227211273 3.0157084828460636 0 0 0
1453 1 17.176460951765346 12.172312373247296 4.473146257878132 0 0 0
1418 1 18.787525255042393 10.46755792165836 5.9100807835235765 0 0 0
772 1 21.56063927814638 10.61605040564765 2.9200220415160603 0 0 0
1455 1 20.03706024634733 12.016550474132279 4.291607048858737 0 0 0
1420 1 21.481045193335984 10.482160662801661 5.6378993263972665 0 0 0
774 1 24.432099795860257 10.332776559287732 2.7701068290688315 0 0 0
1457 1 23.167774558229112 12.05856678983831 4.200135921087361 0 0 0
1422 1 24.692935810499034 10.677240453404501 5.854907669305984 0 0 0
1947 1 2.6417609867113674 0.06947324073077643 7.4862150623632875 0 0 0
1946 1 1.172782292414882 1.7754712026574482 9.170463949545224 0 0 0
1945 1 -0.35939478312721607 0.020167954040792413 7.638965857858324 0 0 0
1949 1 5.371443340831772 0.18512142819383737 7.409782371324788 0 0 0
1948 1 4.0210562512263905 1.7659848116131673 8.702449861462505 0 0 0
1951 1 8.460188541681914 0.12415202010111825 7.660984935162936 0 0 0
1950 1 6.869419212608292 1.5884498273110217 8.687871961198722 0 0 0
1953 1 11.228905862899193 0.42838284613092337 7.140835207502013 0 0 0
1952 1 9.932185888006677 1.679972188528423 8.751370628416058 0 0 0
1954 1 12.82888086402365 1.975825561569955 8.635119878763062 0 0 0
1955 1 14.224203153008931 0.2003273844590414 7.440877860640622 0 0 0
1956 1 15.567778454127758 1.6661022868825586 8.833480365380984 0 0 0
1957 1 17.098668463279697 0.4405563912801098 7.325154778179911 0 0 0
1958 1 18.652484188397228 1.6687034810767418 8.716300713023406 0 0 0
1959 1 20.361302609687332 0.22776805304861736 7.170291264991252 0 0 0
1960 1 21.635067487940386 1.837274227956342 8.641047171043136 0 0 0
1961 1 23.185101646776353 -0.035181153955823885 7.566104756759659 0 0 0
1962 1 24.515232482872847 1.7168676905593379 8.702620265117261 0 0 0
2716 1 21.909150933065597 10.524098097511006 11.860266446341386 0 0 0
1983 1 2.489725642333646 3.1556163543089983 7.427520974371028 0 0 0
1982 1 1.0604827939718908 4.619020338373622 8.84720334019674 0 0 0
2017 1 -0.45901457440995025 6.049615717149071 7.413996449773417 0 0 0
1985 1 5.434676564698174 3.335735535193864 7.354682189869317 0 0 0
1984 1 3.740876514370308 4.734393142172616 8.797984575360402 0 0 0
1987 1 8.235286794568031 3.152035023247598 7.294844918571205 0 0 0
1986 1 6.70394885072488 4.9417102101671855 8.835423466990147 0 0 0
1989 1 11.244090627593827 3.228050331854078 7.0494189210288125 0 0 0
1988 1 9.99824165598011 4.602351843327618 8.617998767532523 0 0 0
1990 1 12.75173237790459 4.587570634498492 8.503457497075095 0 0 0
1991 1 14.510567894948764 3.3084824355422877 7.225951312450324 0 0 0
1992 1 15.982958475553986 4.562379682115123 8.738571279557826 0 0 0
1993 1 17.517517185153174 3.1753820490086113 7.253585750065046 0 0 0
1994 1 18.85288723537973 4.484720274090888 8.987495938736895 0 0 0
2029 1 17.423040411791913 5.978896638913407 7.412808378876318 0 0 0
1995 1 20.056403014979782 3.0788651319434615 7.14782041857107 0 0 0
1996 1 21.254713440960547 4.537241105590776 8.659442283085921 0 0 0
1997 1 23.04926341524423 3.1114114274108227 7.069601324807629 0 0 0
1998 1 24.62424275454371 4.243217924913242 8.68509920570619 0 0 0
2749 1 17.218047010003446 12.249317701426895 10.1940264433184 0 0 0
2019 1 2.2295119327102366 6.03106095393619 7.2617796744657275 0 0 0
2018 1 0.978333932985668 7.478245330409097 8.84736622228108 0 0 0
2055 1 2.356140802071709 8.924149000718117 7.544728175760126 0 0 0
2714 1 18.979365292717663 10.503165883588593 11.902675433485545 0 0 0
2021 1 5.147307117120937 6.45952290026931 7.280592726492317 0 0 0
2020 1 3.7885027463140517 7.8091999324950425 9.103578873680593 0 0 0
2057 1 5.199331518196373 9.013979746081342 7.486676838276404 0 0 0
1374 1 6.789944536032244 7.774388470236277 5.861765135596774 0 0 0
2023 1 8.35729992094219 6.2904446880061435 7.522890620565059 0 0 0
2022 1 6.828939168506425 7.65947181947482 8.964347049846932 0 0 0
2059 1 8.40009103074277 9.244854502111442 7.647067900991351 0 0 0
1376 1 9.665546988839909 7.648180807022273 5.984539188458279 0 0 0
2025 1 11.48710391904194 6.375179326832199 7.477217561734099 0 0 0
2024 1 9.947014774756 7.592060868693867 9.030515790240816 0 0 0
2061 1 11.305738410513074 8.868719696273454 7.546706152208117 0 0 0
1378 1 12.851028618929249 7.5613293486765745 5.8854183969136 0 0 0
2026 1 12.984781222738523 7.453303391110799 9.12434171902005 0 0 0
2027 1 14.377281521531858 6.038834581905994 7.305161947612673 0 0 0
2063 1 14.180455241206129 9.125144419263735 7.460414517366658 0 0 0
2028 1 15.699732338151176 7.582261278275785 8.661619111920398 0 0 0
2030 1 18.431998034389963 7.705997617664572 8.851721271437054 0 0 0
2065 1 17.190102952049376 9.369260326014636 7.34285386213203 0 0 0
2031 1 20.033665294656014 6.532352032256286 7.363408144286497 0 0 0
2032 1 21.696337217712752 7.776281878361267 8.876919201804576 0 0 0
2067 1 19.934002889725313 8.999185896850893 7.461914774505498 0 0 0
2033 1 23.065586454867915 5.785698661282101 7.453924428877549 0 0 0
2034 1 24.482733800150132 7.326274467503058 8.872521016116506 0 0 0
2069 1 23.381307771932732 9.23209897302636 7.239550934135732 0 0 0
2747 1 14.249413457785819 12.185401656039174 10.187871005333326 0 0 0
2054 1 0.9609121354190961 10.687811736099228 8.703984175083757 0 0 0
2091 1 2.4531654809241576 12.233544350306444 7.515720529598685 0 0 0
2093 1 5.104607582284646 11.954421517779105 7.4235801033155155 0 0 0
2056 1 3.5215981445480544 10.627891704564798 8.938088424200453 0 0 0
2058 1 6.636493325421553 10.56482044313496 8.767678821715638 0 0 0
2095 1 8.462636164812078 11.772692634041901 7.516510916805489 0 0 0
2097 1 11.161190634405255 11.870435728703379 7.328045677553137 0 0 0
2060 1 10.047669852277297 10.398286325991668 9.130714984983443 0 0 0
2062 1 12.697359075354388 10.331883713547947 9.00332657738097 0 0 0
2099 1 14.105011710473692 12.115754834445145 7.203500296609587 0 0 0
2064 1 15.500610284709218 10.604230123049517 8.82111370898789 0 0 0
2066 1 18.588467674253955 10.41333265898824 9.018901671644869 0 0 0
2101 1 17.495216320150746 11.934896813382238 7.387429321386472 0 0 0
2068 1 21.841272361918872 10.530017220343858 8.551894448971023 0 0 0
2103 1 20.261479167806286 11.721547630107807 7.423412321262518 0 0 0
2070 1 24.60070155191611 10.815313716127083 8.526100038637281 0 0 0
2105 1 22.831432484276238 12.204241411814365 7.040373153286015 0 0 0
2594 1 0.7495030423968314 1.8272292845655476 11.94027326270426 0 0 0
2595 1 2.606925273543395 0.224167512670426 10.357534272212554 0 0 0
2710 1 12.87865257850239 10.505258785385791 11.891437381460058 0 0 0
2597 1 5.49944431887786 0.20991099443137617 10.217994852871817 0 0 0
2596 1 3.9898353300058282 1.658757064323054 11.971275721600776 0 0 0
2599 1 8.379690871137663 0.23828288067922399 10.227244052067663 0 0 0
2598 1 7.005349030945973 1.7223961987009195 11.548118196094311 0 0 0
2600 1 9.796457820612586 1.6907662921039268 11.729595858071121 0 0 0
2601 1 11.492714002669903 0.37421530009981463 10.280714361967885 0 0 0
2602 1 12.813254119977334 2.0139787296254497 11.97091353465618 0 0 0
2603 1 14.131514338025674 0.4470264707704017 10.218144326512723 0 0 0
2604 1 15.718293720190747 1.6271703068671228 11.920144498798498 0 0 0
2605 1 16.990945547452917 0.31055185769093874 10.269662665485193 0 0 0
2606 1 18.4258270257869 1.6209487640267182 11.79223050878111 0 0 0
2607 1 19.86473898523391 0.3981411969943627 10.375622583631353 0 0 0
2608 1 21.66302974826702 1.7960074731100817 11.60812392954264 0 0 0
2609 1 22.940106212443936 0.30958259446188074 10.184443284970166 0 0 0
2610 1 24.07438597936321 1.6831206339173113 11.876382795766748 0 0 0
2053 1 -0.38705477932897936 8.976024973121403 7.4602888519033765 0 0 0
2630 1 0.9952921751588557 4.607270548504892 11.96897626920357 0 0 0
2631 1 2.5242671257663987 3.34289775836599 10.416616205163212 0 0 0
2633 1 5.488471313255404 3.202177970377576 10.264829314001734 0 0 0
2632 1 3.950770569294197 4.556033363703245 11.950433784997958 0 0 0
2635 1 8.06511730275696 3.252588716013616 9.959679740319688 0 0 0
2634 1 6.670488553150701 4.6367782549074565 11.794036067199631 0 0 0
2637 1 11.226940498459385 3.143282931479839 10.204339235333787 0 0 0
2636 1 9.680381946553492 4.532162381695061 11.535551884650562 0 0 0
2638 1 12.6682521501696 4.454561854143421 11.744285770772526 0 0 0
2639 1 14.12543099250082 3.2764808021507847 10.155789453905117 0 0 0
2640 1 15.816290812952495 4.4270132318782 11.860277553672711 0 0 0
2641 1 17.092134254849558 3.0413204673694993 10.422426463222731 0 0 0
2642 1 18.646806077822202 4.7094848699056024 11.825046476706337 0 0 0
2677 1 17.00568199410059 6.3284570471542905 10.35903122619499 0 0 0
2643 1 20.053439136523888 2.9173094182271337 10.17927596672743 0 0 0
2644 1 21.53171829217479 4.736576494774431 11.634508479065598 0 0 0
2645 1 22.880618320731067 3.3515361206000187 10.123605963387524 0 0 0
2646 1 24.550413392402316 4.6891454932764285 11.927875183678792 0 0 0
2681 1 22.950934511866038 6.104013619968514 10.252383672841235 0 0 0
2667 1 2.5071195067949152 5.956694291937791 10.436721772384292 0 0 0
2665 1 -0.4245027348962941 5.876648758344817 10.22109849254346 0 0 0
2666 1 0.7514392664295555 7.578111341581598 11.720195285454377 0 0 0
2703 1 2.194603958957587 9.070554933982622 10.330223455980066 0 0 0
793 1 -0.4641356178101412 12.133553420462844 1.5366719920802074 0 0 0
2669 1 5.206882198097895 6.130635373017061 10.46021972310195 0 0 0
2705 1 5.430598329844361 8.919981760661562 10.457960286929378 0 0 0
2668 1 3.7361652374636503 7.825148035454113 11.823272476614342 0 0 0
2671 1 8.14844981495129 6.197894192501466 10.30847886993573 0 0 0
2670 1 6.909721638536955 7.473381983158783 11.970518387283354 0 0 0
2707 1 8.222213249073356 8.976654512200183 10.41894670939342 0 0 0
2673 1 11.438573569437601 5.7851599145884585 10.21361552544981 0 0 0
2672 1 9.825488390048095 7.598406486148393 11.872728987067571 0 0 0
2709 1 11.357092405199037 8.855997463422806 10.454880935498084 0 0 0
2675 1 14.387622880313048 5.914504177112836 10.274306790748014 0 0 0
2674 1 12.836509543346436 7.363758556219454 11.932420250551324 0 0 0
2711 1 14.437918551090762 8.933048658991149 10.546843773716885 0 0 0
2676 1 15.527038567067219 7.388000706484661 12.076834137072938 0 0 0
2713 1 17.09900418478754 9.031711736771786 10.458022851462967 0 0 0
2678 1 18.739715106391127 7.610420810342921 11.783473416136493 0 0 0
2679 1 20.27942187595057 6.397826360422705 10.311987275272378 0 0 0
2715 1 20.211558559029374 9.201915725302962 10.35952420557515 0 0 0
2680 1 21.71279660256288 7.728310762699833 11.5897384401957 0 0 0
2682 1 24.386484557978118 7.6899314709760525 11.569129206685766 0 0 0
2717 1 23.21173264667843 9.426414268475225 10.167495166982025 0 0 0
2712 1 15.673419625064398 10.665184228338028 11.779846182121997 0 0 0
2702 1 0.9662154411098718 10.486194729948538 11.905760488738443 0 0 0
2739 1 2.214344012480881 12.08203524770217 10.53479534845494 0 0 0
2708 1 9.822596449318677 10.889527854020914 11.941967749848828 0 0 0
2704 1 3.8369300781311004 10.430508971743722 11.872623384049605 0 0 0
2741 1 5.3291944506404025 11.895590669035641 10.550689364971628 0 0 0
2706 1 6.872170672578532 10.54187185169054 11.975337744644197 0 0 0
2743 1 8.225677449102143 11.55973944648853 10.331249206417667 0 0 0
2745 1 11.490443091396733 11.971906526046869 10.334863851155994 0 0 0
2593 1 -0.36155427107419846 0.019121826851873247 10.544687519017097 0 0 0
2683 1 25.8381453784391 5.795978166280647 10.093564203168976 0 0 0
757 1 -0.5168607932013192 8.7826764620512 1.4401639469118406 0 0 0
1441 1 -0.5264757842325068 12.164471403858325 4.461300297466015 0 0 0
2719 1 25.88864716257096 8.935943140249377 10.189120922978425 0 0 0
2035 1 25.858941717018787 6.053388621572244 7.534957392781749 0 0 0
1369 1 -0.4025002438399312 6.091233541855459 4.476697801696423 0 0 0
2737 1 -0.4664229704944063 11.835913676272018 10.238484026041666 0 0 0
3242 1 0.8727990305000357 1.769528282531303 14.847363539832097 0 0 0
3243 1 2.310310963389235 0.2165350770201242 13.268194993570978 0 0 0
3244 1 4.1057315430350085 1.7168086301777699 14.623740957689876 0 0 0
3245 1 5.460023096233968 0.32437822819040196 13.169394915534896 0 0 0
3246 1 6.868707609584805 1.571835030433666 14.764474650825269 0 0 0
3247 1 8.481445134797335 0.2465770595080018 13.240605853136673 0 0 0
3248 1 9.71216629773373 1.8620162826277724 14.67243958880429 0 0 0
3249 1 11.355106467729167 0.5194104223982001 13.189684073646017 0 0 0
3250 1 12.904647208776105 1.8204909428190001 14.793688518589848 0 0 0
3251 1 14.331533900982297 0.21296156288976797 13.587249128946539 0 0 0
3252 1 15.767187419447737 1.6918238501723537 14.904838282689296 0 0 0
3253 1 17.117338095216844 0.3427916282758028 13.481711962316766 0 0 0
3254 1 18.711623120196293 1.7127044957998594 14.912686829865283 0 0 0
3256 1 21.409085123369188 1.7202995252619835 14.60995415641468 0 0 0
3255 1 19.879142578354486 0.30115909041914535 13.44073151897121 0 0 0
3257 1 23.09522989076124 -0.07833000026650982 13.195650007984154 0 0 0
3258 1 24.247052559819007 1.924094498342059 14.73040652191036 0 0 0
5310 1 24.655771857041085 10.32660170867151 23.546594738027242 0 0 0
3278 1 0.9327983492425307 4.682566854948483 14.956388679428297 0 0 0
3279 1 2.4250063117224987 2.9962252180793554 13.413841068010457 0 0 0
3315 1 2.1786943246055603 6.262153141636189 13.239754215433381 0 0 0
3313 1 -0.49273474392633265 6.137902205617735 13.684387178122106 0 0 0
3281 1 5.438318145188015 3.17832945893488 13.291759761916204 0 0 0
3280 1 3.8423569409145584 4.653274069839593 14.4500091781702 0 0 0
3317 1 5.281220980605126 6.206563424475174 13.193140752758856 0 0 0
3283 1 8.162107038711904 3.236081583898747 13.107843498110402 0 0 0
3282 1 7.018139489364573 4.597212973664565 14.782508864600961 0 0 0
3285 1 11.209350562757093 3.276942056258053 13.178909629890619 0 0 0
3284 1 9.686792901898608 4.350875199397311 14.671430721122025 0 0 0
3321 1 11.323544116615432 5.959916055951396 13.21002801992465 0 0 0
3969 1 11.082415419795582 6.106058436185557 16.07615372976524 0 0 0
3286 1 12.524691005997651 4.591524642530946 14.785763123529687 0 0 0
3287 1 14.32543339963969 3.1369682307746163 13.332398033844388 0 0 0
3288 1 15.775875025774162 4.555967569086329 14.837291422845373 0 0 0
3323 1 14.107687435043058 5.805575752944678 13.401805088809233 0 0 0
3971 1 14.052950165194185 6.033146053826215 16.109610539140135 0 0 0
3289 1 17.310684771749425 3.1989973568403296 13.486647214994845 0 0 0
3290 1 18.802798341322713 4.781293953480885 14.776578780203074 0 0 0
3325 1 17.243999563462904 6.122489870738657 13.388205426233876 0 0 0
3291 1 20.15933302222021 3.3297977689652343 13.220468899064942 0 0 0
3292 1 21.621701119870927 5.070558063264667 14.71956845985117 0 0 0
3327 1 20.17867979303759 6.155664667428718 13.114890140002302 0 0 0
3293 1 22.88327168636642 3.403717340921011 13.392819611802661 0 0 0
3294 1 24.561684117738558 4.819680672236858 14.84528537168942 0 0 0
3314 1 1.0836509437169255 7.792972470493 14.774019307588222 0 0 0
3351 1 2.430954145418524 9.24079882401543 13.483703146098545 0 0 0
3316 1 3.886435396254492 7.7845364961460675 14.509392505217104 0 0 0
3353 1 5.5658330404055 9.035362729060466 13.165307091687438 0 0 0
3319 1 8.374780382935187 5.964745310784082 13.321610566478475 0 0 0
3318 1 6.9568818083981405 7.426017396306159 14.63279290933383 0 0 0
3355 1 8.411921992339037 9.199221465756782 13.364028336440603 0 0 0
3320 1 9.97303966422647 7.571697097961531 14.61882417459081 0 0 0
3357 1 11.363084229288033 9.095537825362285 12.962728729292946 0 0 0
3322 1 12.708079756901148 7.50641518875825 14.7648652117733 0 0 0
3359 1 14.175653204929583 9.074285580191116 13.381975739653525 0 0 0
4007 1 14.302504755686204 9.10680463821764 15.954787167615503 0 0 0
3324 1 15.59203675053951 7.407304738731844 14.655577620440578 0 0 0
3326 1 18.67809909126286 7.528255394455986 14.798151843799694 0 0 0
3361 1 17.0251234438685 8.90717999083869 13.27156112482698 0 0 0
4009 1 16.966254679157018 8.978452462901389 16.029579791545082 0 0 0
3328 1 21.588220684876788 7.541308012017254 14.929703778888333 0 0 0
3363 1 20.404129929487674 8.993733837878871 13.25347145192806 0 0 0
3329 1 23.077093073550408 6.203356517087723 13.177594749414792 0 0 0
3330 1 24.307704293127557 7.607773004453199 14.765785117894504 0 0 0
3365 1 23.226073291850444 9.047602844576938 13.220083943355736 0 0 0
4013 1 23.104851093953254 9.117995134400903 16.17999522984099 0 0 0
5993 1 23.252557946508787 11.755703542175052 25.000212492317356 0 0 0
3350 1 1.0341966245887506 10.61362911854836 14.792538133124605 0 0 0
3387 1 2.5238592934944992 11.946186006849095 13.277974452817071 0 0 0
3352 1 3.9037485886932446 10.581160274330212 14.848990916133738 0 0 0
3389 1 5.334742903581557 11.985467275271919 13.236432118644217 0 0 0
3354 1 7.204685887068737 10.643484481081897 14.820747586037582 0 0 0
3391 1 8.120288607355544 12.152697434162794 13.287034862261775 0 0 0