LAMMPS data file via write_data, version 2 Aug 2023, timestep = 100000, units = metal

11664 atoms
1 atom types

0.0025735334577419167 51.911226466542956 xlo xhi
0.0025735334577419167 51.911226466542956 ylo yhi
0.0025735334577419167 51.911226466542956 zlo zhi

Masses

1 55.847

Atoms # atomic

2753 1 23.033246191572836 11.612519352505528 11.523180365400677 0 0 0
2 1 1.449297030462912 1.5229487075181807 1.3944914359918983 0 0 0
2719 1 25.935618612037725 8.753721612326864 11.535713497000526 0 0 0
2104 1 21.608238547873363 12.970873573712815 10.06351218152261 0 0 0
2098 1 12.94050335573187 12.945818923022408 10.070984604930675 0 0 0
649 1 0.02720051325675654 0.09452623336513674 2.8619862653254877 0 0 0
2683 1 25.93369472953728 5.8509374157094465 11.450754507343982 0 0 0
2070 1 24.543241644816572 10.171429188464801 10.092290394174029 0 0 0
687 1 2.823908050645633 2.9268155570815058 2.8452161738564254 0 0 0
4 1 4.367692962673024 1.4597048484988355 1.3576964677879906 0 0 0
2647 1 25.948369991040654 2.9771374228274516 11.550130956197917 0 0 0
1450 1 12.971991503878431 12.952623598994805 7.148633582009799 0 0 0
2107 1 25.913455726055012 11.588746400417556 8.62762011823781 0 0 0
689 1 5.772603200918561 2.8847330282847987 2.812890978791689 0 0 0
6 1 7.221475124671824 1.4503749469731717 1.3665936533178962 0 0 0
2071 1 25.95628358186298 8.711259709498128 8.663629409613058 0 0 0
1448 1 10.02167688709158 12.96057891801562 7.1616218925982515 0 0 0
655 1 8.681775101455486 0.09137942648019819 2.8594632063296044 0 0 0
691 1 8.66514599458655 2.8310465007341326 2.827200207303123 0 0 0
8 1 10.138809747403204 1.4694107507349854 1.4079712306358907 0 0 0
1446 1 7.198008886732511 12.925284647240838 7.151949403883313 0 0 0
802 1 12.952785243166755 12.963873513527266 4.237937591413498 0 0 0
657 1 11.54215021128711 0.04443552928187204 2.859311420591806 0 0 0
693 1 11.651162753944659 2.8858486030744848 2.9059586130333073 0 0 0
10 1 12.981869683281197 1.4379078533187442 1.3920269089535917 0 0 0
800 1 10.063510701506283 12.957141994627515 4.302217116074131 0 0 0
12 1 15.885119148962888 1.5466141975310241 1.4018387509361996 0 0 0
798 1 7.1538051241842915 12.976266045966604 4.264906062664376 0 0 0
659 1 14.397637196526173 0.009087279186581873 2.823727109269664 0 0 0
695 1 14.422265440144107 2.8693915643932857 2.912433166311479 0 0 0
2035 1 25.91608514858085 5.810824376278735 8.684080244122823 0 0 0
14 1 18.701780877908014 1.5285252455961795 1.378728158644051 0 0 0
162 1 24.593870147185662 12.971874294681315 1.4232281283908959 0 0 0
661 1 17.259973219521143 0.05603347650694334 2.805264599495648 0 0 0
697 1 17.30037871549624 2.9241903391950586 2.916264205087312 0 0 0
156 1 15.831227416235278 12.96069340222141 1.4051185197189315 0 0 0
16 1 21.582913617225188 1.5155442830647485 1.3586305853643486 0 0 0
739 1 25.951052378531216 5.738097253930504 2.8631930627353723 0 0 0
663 1 20.13134014676714 0.010197533636518239 2.8061024631173908 0 0 0
699 1 20.175882348800275 2.8883228259676494 2.828912211971558 0 0 0
703 1 25.925915082037147 2.9054726561762645 2.786077084464177 0 0 0
18 1 24.509748051538814 1.4994956353919175 1.3379828279681072 0 0 0
667 1 25.912854879218294 0.0564944257788148 2.7882832568644584 0 0 0
665 1 23.015323638868004 0.053693760222482255 2.7327401105988094 0 0 0
701 1 23.0851593661819 2.877709579768365 2.7749364594280994 0 0 0
38 1 1.47691380010375 4.386850666957565 1.433702761447556 0 0 0
2054 1 1.478871754705561 10.045432896509832 10.050731738995575 0 0 0
2717 1 23.06691095032366 8.740723858473967 11.48865513010973 0 0 0
2751 1 20.14110017698234 11.598560544874209 11.557840647127366 0 0 0
723 1 2.869855240061613 5.791207161424075 2.8078141977594315 0 0 0
40 1 4.3561399482103305 4.293469429482793 1.35629067119174 0 0 0
2034 1 24.532638279523027 7.28331375859903 10.053664924817795 0 0 0
725 1 5.676928518657502 5.811900898616055 2.8091526824123143 0 0 0
42 1 7.200262944079919 4.326526786272957 1.4212667611977743 0 0 0
2715 1 20.207632312583865 8.733555652739533 11.5129255517885 0 0 0
727 1 8.634151012932687 5.768591927743931 2.8911796468108735 0 0 0
44 1 10.101596415584176 4.325913386814454 1.4264557171694165 0 0 0
2032 1 21.671330674180403 7.2952721145541695 10.008225673549033 0 0 0
729 1 11.532289842877315 5.770003415867769 2.929116009656701 0 0 0
46 1 12.974262113337296 4.305761937917105 1.4301053901333163 0 0 0
48 1 15.815262683302988 4.324425307169061 1.4116626671264139 0 0 0
2713 1 17.335581785294604 8.708796270793599 11.469702128913235 0 0 0
731 1 14.400809923350828 5.797085414384566 2.8358738573431848 0 0 0
50 1 18.75693904387151 4.437201652164984 1.4807083306381534 0 0 0
2030 1 18.69932163938515 7.2664124134245025 9.983669462762808 0 0 0
733 1 17.244696823410177 5.7977936776846715 2.859389825315996 0 0 0
52 1 21.57310380857177 4.3466714631389225 1.464519791218492 0 0 0
2711 1 14.399326010325233 8.650497862329365 11.488574840029369 0 0 0
735 1 20.17951249637715 5.824339882296691 2.8831807850454494 0 0 0
54 1 24.496850876064563 4.4105109464148065 1.4042891087396505 0 0 0
2028 1 15.850273853901918 7.209437642875496 10.120168540185416 0 0 0
737 1 23.06225387429848 5.820611217037905 2.7998490460070546 0 0 0
74 1 1.3837042384161276 7.235548019180504 1.4607288729158572 0 0 0
2026 1 12.93166785188394 7.189627965859681 10.020408054577276 0 0 0
2709 1 11.539035016257364 8.670344968137787 11.497211699549663 0 0 0
757 1 0.020302354606762905 8.692992108403173 2.9074955645054246 0 0 0
759 1 2.843251863985279 8.672186048009339 2.827234528062577 0 0 0
76 1 4.282848933546034 7.2329558626256025 1.379183006460653 0 0 0
2024 1 10.005978673910834 7.241791624667154 10.048547983409671 0 0 0
761 1 5.715553391438253 8.631834269220885 2.8399687712733033 0 0 0
78 1 7.089743006240352 7.2266914904421045 1.3493842489928574 0 0 0
2707 1 8.612060562653438 8.647224361084575 11.545104759012284 0 0 0
763 1 8.633775006338217 8.641482837713806 2.789049626589603 0 0 0
80 1 10.047457846777325 7.241416554760944 1.3707178460708456 0 0 0
117 1 11.519818585869093 8.687028877598767 0.003268190098139895 0 0 0
765 1 11.56804351449733 8.646701430060567 2.8780687113532832 0 0 0
82 1 12.895308869801044 7.1501383949587 1.4298024142761259 0 0 0
84 1 15.84617757569191 7.209107678263596 1.3976439363906241 0 0 0
2022 1 7.132809492932457 7.218748041971457 10.12528423579691 0 0 0
767 1 14.360274010537017 8.682629517469584 2.844078488126442 0 0 0
86 1 18.681612117286374 7.220340716436151 1.3785121079419231 0 0 0
2705 1 5.74261746547008 8.686232271857191 11.552080939231086 0 0 0
769 1 17.322100048932757 8.682258125912597 2.8883013129350625 0 0 0
88 1 21.5703896141951 7.175550220003184 1.394965752714511 0 0 0
123 1 20.17577097881403 8.735470124569158 0.056002639946830815 0 0 0
771 1 20.17503723852276 8.667811999831338 2.838505491651266 0 0 0
90 1 24.56792611952444 7.257509587522776 1.3894629394257787 0 0 0
125 1 23.113023829850043 8.694871296199016 0.03556375251057946 0 0 0
773 1 23.060142687888312 8.714349488875861 2.8104114984319355 0 0 0
110 1 1.4741492782275036 10.121560607298711 1.3865474569172227 0 0 0
2068 1 21.657713806645152 10.21596667793429 10.08734332330702 0 0 0
2020 1 4.335811949418274 7.1882093835455505 10.099473817912415 0 0 0
2749 1 17.20448186369597 11.554911592355325 11.461689463641598 0 0 0
795 1 2.834083574180158 11.599140053044284 2.814944492751241 0 0 0
112 1 4.358404391959966 10.118369710719824 1.4096547340249754 0 0 0
2703 1 2.8499667853711323 8.625320689017908 11.548147098554269 0 0 0
797 1 5.654032105428331 11.637843274904853 2.896898809648073 0 0 0
114 1 7.1688194079750245 10.05387305592303 1.45706493866113 0 0 0
151 1 8.615740112385907 11.595960882624833 0.012969032843441773 0 0 0
799 1 8.59963286103139 11.546626241439991 2.818696304378425 0 0 0
116 1 10.078507102210594 10.141984886876507 1.3926557626008467 0 0 0
2737 1 0.01309813626782128 11.508612548086393 11.56606204112647 0 0 0
801 1 11.469937445945732 11.513825518350927 2.8463569755828746 0 0 0
118 1 12.95774310342588 10.151091463698874 1.4319021158177034 0 0 0
120 1 15.804166824693858 9.984790567166893 1.3222318670475801 0 0 0
2018 1 1.3539128356304717 7.221263335912358 10.0889738624611 0 0 0
803 1 14.434718512258367 11.544852104690742 2.846450631966305 0 0 0
122 1 18.679039844522134 10.117510349723169 1.407875275417952 0 0 0
157 1 17.25665453153462 11.626510221489676 0.011905220589039051 0 0 0
805 1 17.261063332754222 11.515101042181744 2.900308004997083 0 0 0
124 1 21.637079790529956 10.189766277888348 1.3740301154403955 0 0 0
2681 1 23.081363365867627 5.894854328064072 11.491848765782905 0 0 0
807 1 20.169966554414504 11.573952621574623 2.8359097402716174 0 0 0
126 1 24.575154064329112 10.154347640568801 1.4118156781106983 0 0 0
1998 1 24.535118145343937 4.356879131352159 10.089736217775757 0 0 0
809 1 23.050946163657045 11.511644303567765 2.838949461301183 0 0 0
650 1 1.4063229448592292 1.4234615314783106 4.348263932424582 0 0 0
2066 1 18.71619701656907 10.16912755370659 10.075084653715297 0 0 0
1299 1 2.92113418055192 0.020926258585273572 5.789288698330689 0 0 0
2747 1 14.436984411565646 11.532069910715125 11.430630453891972 0 0 0
1335 1 2.832534754864376 2.9343897604413325 5.809646673666567 0 0 0
652 1 4.206013637515615 1.5144114293613826 4.277630424183949 0 0 0
1301 1 5.734991516231918 0.0585706402645269 5.6838669823444485 0 0 0
1337 1 5.657600425840116 2.910912201924192 5.746986261367808 0 0 0
654 1 7.191460627375049 1.4367825472851634 4.26446863849581 0 0 0
1303 1 8.62072631049234 0.028226600264305488 5.760909070814163 0 0 0
1339 1 8.672973719758028 2.905752127318387 5.757382845171735 0 0 0
656 1 10.105384051172122 1.4999842908780936 4.338836926602313 0 0 0
1305 1 11.4990809153908 0.02797000946798044 5.730162546497739 0 0 0
1341 1 11.639118524404822 2.922117575972276 5.782426356884099 0 0 0
658 1 13.016111227499733 1.4380614511545062 4.3701587245257 0 0 0
660 1 15.86740257128807 1.4503586692556782 4.306454910874469 0 0 0
1999 1 25.927850912390667 2.9013395150238233 8.630442435368646 0 0 0
1343 1 14.444585421190874 2.885825157004483 5.740846162045181 0 0 0
662 1 18.73101167331392 1.4371500403764113 4.272605441215405 0 0 0
1459 1 25.943507567216674 11.58334850489213 5.7096008192847325 0 0 0
1345 1 17.307830179862243 2.911671184137306 5.672832284963597 0 0 0
664 1 21.65661948208757 1.4934397925073677 4.267060594140357 0 0 0
1311 1 20.174294229557326 0.09598407952114035 5.7367764026653685 0 0 0
1347 1 20.21053187487091 2.9078752468283104 5.751172351900733 0 0 0
666 1 24.48231665529935 1.5251741220850015 4.24743304068123 0 0 0
1313 1 23.132419271329567 0.11423736557203085 5.715702861078143 0 0 0
1349 1 23.086216290493876 2.90378547122911 5.772420672250999 0 0 0
686 1 1.4507881001043001 4.350041257027565 4.2913735997814815 0 0 0
2064 1 15.881120801940813 10.058791033626337 10.043009385468084 0 0 0
1371 1 2.8475516984521585 5.811026831785421 5.787913705822648 0 0 0
688 1 4.285890962568615 4.297547610531964 4.19267517509168 0 0 0
1373 1 5.718384220734212 5.784158786621311 5.7575971245504665 0 0 0
690 1 7.231455947086509 4.303001724948153 4.340110449900671 0 0 0
1375 1 8.574297714243556 5.832148211709127 5.697799763641969 0 0 0
692 1 10.104395949430254 4.308238439778521 4.285198288037063 0 0 0
1377 1 11.527737787894356 5.7552984050878875 5.711182512794511 0 0 0
694 1 12.975923092510342 4.417170703716462 4.34355974089607 0 0 0
696 1 15.813414449887649 4.370808991026117 4.28610522565059 0 0 0
1379 1 14.446007501293732 5.782686603201989 5.782258932134168 0 0 0
698 1 18.73967091843904 4.390979110688116 4.2875643657601366 0 0 0
1381 1 17.31484236356757 5.827308978524699 5.71511851854272 0 0 0
700 1 21.659094632067177 4.346086821164495 4.299208991200212 0 0 0
1383 1 20.15936652525954 5.814258823187876 5.717295681020323 0 0 0
702 1 24.477587312226397 4.360628964440774 4.284509285804215 0 0 0
1385 1 23.05334032122249 5.841254146553018 5.697115809670421 0 0 0
722 1 1.4342515053113316 7.229654571942238 4.277726209395302 0 0 0
2062 1 12.942329435263224 10.08218872851018 10.071125428321386 0 0 0
1407 1 2.848800006511797 8.675045668935857 5.734600847066238 0 0 0
724 1 4.250267821888967 7.194194552513498 4.318820772758001 0 0 0
1409 1 5.731700280933588 8.62975954012998 5.73068062781128 0 0 0
726 1 7.203714950281142 7.227627762692938 4.237950142670406 0 0 0
1411 1 8.616381699954474 8.704820951379476 5.716341826535748 0 0 0
728 1 10.059144513844592 7.257271106813913 4.309708740514375 0 0 0
1413 1 11.54804139356581 8.657747678995927 5.759080150624671 0 0 0
730 1 12.969043760072857 7.213104370168114 4.307257225206246 0 0 0
732 1 15.778109156163875 7.196622190314987 4.301058965933211 0 0 0
1415 1 14.403697268936641 8.676730987457807 5.7352794560177776 0 0 0
734 1 18.735864276657498 7.263736380444887 4.297168851317266 0 0 0
1417 1 17.280190008294397 8.676357601504234 5.739991045036768 0 0 0
736 1 21.623875889148593 7.26194697706385 4.268585286625376 0 0 0
1419 1 20.21410385999205 8.703140536362454 5.756759596578563 0 0 0
738 1 24.500207659748163 7.230277526720115 4.2188624382157425 0 0 0
1421 1 23.053031736161234 8.693507220717413 5.703945880648572 0 0 0
758 1 1.4168569308419854 10.147476230305244 4.337280351285122 0 0 0
1441 1 0.06511869959538041 11.615868195366781 5.767826063066303 0 0 0
1443 1 2.848291067015501 11.61268375064078 5.782312731481918 0 0 0
760 1 4.268711228145018 10.042754967009216 4.2903694744965355 0 0 0
1445 1 5.753944398721886 11.565182214032491 5.724803211697646 0 0 0
762 1 7.177092827215896 10.167096147153776 4.312348204811112 0 0 0
1447 1 8.62145038702022 11.539699210308695 5.723015558052562 0 0 0
764 1 10.081545461188428 10.09752099267489 4.222506746146902 0 0 0
1449 1 11.49296017693927 11.52304221385881 5.754150007565838 0 0 0
766 1 12.997996563051963 10.16439338661563 4.267113605122266 0 0 0
768 1 15.804220551238801 10.087916568126424 4.274004781274987 0 0 0
1451 1 14.429403114749354 11.577462560828865 5.697540479047557 0 0 0
770 1 18.802984647239676 10.088490005622475 4.3358526870563585 0 0 0
1453 1 17.341319660215046 11.589799299372281 5.740042928888503 0 0 0
772 1 21.598964773213492 10.130296902200435 4.293043082398442 0 0 0
1455 1 20.19360666839238 11.667147301298693 5.6466770853323265 0 0 0
774 1 24.51286085659776 10.0513081949888 4.248955952175433 0 0 0
1457 1 23.048097518193888 11.547382178489343 5.638376074797917 0 0 0
1298 1 1.4041423232117525 1.433119010218782 7.20506913755669 0 0 0
2745 1 11.521369257184858 11.491234724114603 11.473967514636298 0 0 0
1423 1 25.92165892647443 8.701780352975689 5.761768311667997 0 0 0
2060 1 10.007813274289612 10.063130991449823 10.082449096600596 0 0 0
1983 1 2.868020924217077 2.8894940558086524 8.620982274290458 0 0 0
1300 1 4.312163587370861 1.37213121895917 7.212849558574959 0 0 0
1387 1 25.89501012838512 5.789380993875813 5.692237715086444 0 0 0
1985 1 5.750065402171031 2.9261720083100666 8.60210499381798 0 0 0
1302 1 7.200043259983194 1.4394442535957763 7.109385762904312 0 0 0
1351 1 25.893419212812812 2.8696458603204866 5.743763558864353 0 0 0
1987 1 8.609389883833945 2.9328357407860106 8.606538917321982 0 0 0
1304 1 10.087291199140907 1.425767780020151 7.130177938039197 0 0 0
1953 1 11.591129272305812 0.07511194590022112 8.625745416619234 0 0 0
1989 1 11.499321393339391 2.9038392883947517 8.610803545455932 0 0 0
1306 1 13.059793767475602 1.4536474214176087 7.213875054466877 0 0 0
1308 1 15.8629317202306 1.4721155504804952 7.155060777974953 0 0 0
1955 1 14.443047329198132 0.016230226303576345 8.644436401720995 0 0 0
1991 1 14.392448857388265 2.940559439123182 8.63476267992379 0 0 0
1310 1 18.729968972659325 1.4733145387638955 7.171020153274878 0 0 0
1957 1 17.26973101990967 0.04674476050973281 8.617556716072313 0 0 0
1993 1 17.272088830950434 2.9386956508173165 8.597099995119423 0 0 0
1312 1 21.59060862674229 1.4184416275543197 7.17615360064893 0 0 0
1959 1 20.138622378996754 0.011780931404138231 8.615863833554466 0 0 0
1995 1 20.213361311573543 2.9502380357211404 8.562730946210937 0 0 0
1314 1 24.51677646854549 1.468198493986074 7.242579830356212 0 0 0
1961 1 23.03132769925995 0.09345354166346663 8.646759122817778 0 0 0
1997 1 23.07667757419839 2.9667208699101693 8.561730736932434 0 0 0
1334 1 1.384364509527855 4.313158427116166 7.295011669927726 0 0 0
2743 1 8.647769677005954 11.592461224445065 11.497479540270923 0 0 0
2019 1 2.8361803513936366 5.844738680394514 8.607503095987049 0 0 0
1336 1 4.265750032696654 4.342904707583096 7.233138463312103 0 0 0
2021 1 5.718624703829317 5.815200470966712 8.606432962960922 0 0 0
1338 1 7.15978418162397 4.3183503384466 7.181110808694825 0 0 0
2023 1 8.597590306061788 5.7627134872505055 8.585256558162852 0 0 0
1340 1 10.070127244642013 4.383867646858163 7.128615792426399 0 0 0
2025 1 11.520991246820312 5.791435546973748 8.578388672061005 0 0 0
1342 1 12.95197680037417 4.347814938277165 7.1927010894980965 0 0 0
1344 1 15.901437938986778 4.341191906346043 7.1494781690113225 0 0 0
2027 1 14.417771590642456 5.803672902326676 8.575020675287735 0 0 0
1346 1 18.813418609130895 4.397266427389423 7.1982882468590486 0 0 0
2029 1 17.326078559665365 5.822026938961706 8.585031379771713 0 0 0
1348 1 21.68279546204068 4.402512933526688 7.145595292035601 0 0 0
2031 1 20.19270103641745 5.840648461327114 8.637252205902527 0 0 0
1350 1 24.512540891294186 4.392581259131057 7.145128871179189 0 0 0
2033 1 23.11797804465124 5.826226341766635 8.604664722064651 0 0 0
1370 1 1.3754710681805953 7.271399105084796 7.186503809168026 0 0 0
2058 1 7.2110328616393256 10.136961277952764 10.062325712341323 0 0 0
2055 1 2.8698427481928372 8.593017206822465 8.646832275126922 0 0 0
1372 1 4.276845089215327 7.259591388595713 7.190656575839677 0 0 0
2057 1 5.797764664219158 8.67281290564193 8.650846392195493 0 0 0
1374 1 7.148853463726461 7.215859272827352 7.200577390377908 0 0 0
2059 1 8.636959767236437 8.661095591652323 8.551832031966226 0 0 0
1376 1 10.02917070842717 7.22851838896965 7.143758558692635 0 0 0
2061 1 11.493894502865121 8.603909078768595 8.68205584519103 0 0 0
1378 1 12.964465816515109 7.238160818683676 7.162281846526019 0 0 0
1380 1 15.882428845865784 7.232268683254996 7.1481259847060254 0 0 0
2063 1 14.418019453265527 8.605481259980213 8.646301051169536 0 0 0
1382 1 18.73287597955848 7.2658335173307345 7.13048614831391 0 0 0
2065 1 17.235291671774124 8.69741498801948 8.547053405290917 0 0 0
1384 1 21.6203702878397 7.229567694781557 7.135771137323123 0 0 0
2067 1 20.132323756112825 8.70974033834126 8.611907509890086 0 0 0
1386 1 24.456293283372773 7.261312595793024 7.135800924221851 0 0 0
2069 1 23.12135750011317 8.7440591557709 8.610586105358047 0 0 0
1406 1 1.3996684124292105 10.118421160482272 7.214186369097256 0 0 0
2741 1 5.80280261911098 11.555916856027519 11.557953993359337 0 0 0
2091 1 2.920928216700724 11.5051237327989 8.614697612916991 0 0 0
1408 1 4.390227642665858 10.071918048740912 7.12426267849489 0 0 0
2093 1 5.776390100366154 11.579933783525199 8.708161094389194 0 0 0
1410 1 7.155170160484875 10.090142545433377 7.160327910487261 0 0 0
2095 1 8.671898982527946 11.52567718233279 8.652191292797031 0 0 0
1412 1 10.101220095070515 10.085943832715008 7.198458555708807 0 0 0
2097 1 11.568357825499161 11.534880754470695 8.648841716807668 0 0 0
1414 1 12.94322676884908 10.123732758282575 7.1862513871848375 0 0 0
1416 1 15.784487263061669 10.139528354934386 7.160762350050688 0 0 0
2099 1 14.393745775665147 11.501429994103724 8.627935398094454 0 0 0
1418 1 18.737463481200002 10.192924966794859 7.1670122708291695 0 0 0
2101 1 17.312217032508546 11.552542902538795 8.628527887614187 0 0 0
1420 1 21.626044003450403 10.17081397676538 7.186666957857126 0 0 0
2103 1 20.140513811677263 11.559446269276783 8.662309193293272 0 0 0
1422 1 24.495363594299615 10.136957897446775 7.117151941131992 0 0 0
2105 1 23.054038044388943 11.58983086612281 8.642237178866273 0 0 0
1946 1 1.484112292124243 1.44362344754274 10.076323704766196 0 0 0
2056 1 4.316210875846431 10.089095626747651 10.07377589906669 0 0 0
2595 1 2.8695325939700993 0.05792807769726885 11.551737309208837 0 0 0
2629 1 0.010814253201023884 2.9323479219246096 11.52321150797588 0 0 0
2631 1 2.8947182421980964 2.8838542273958456 11.533316776189647 0 0 0
1948 1 4.415857432014496 1.433851353065203 10.044635574660589 0 0 0
2597 1 5.819774101927528 0.016773025497201253 11.483136111821901 0 0 0
2633 1 5.755921732807954 2.916523017234031 11.503088760853917 0 0 0
1950 1 7.2125147039066615 1.4713473899899399 10.089624201217188 0 0 0
1315 1 25.918787067373888 0.017548548615261485 5.746016184418538 0 0 0
2635 1 8.61678063526171 2.874450779235024 11.54760779175736 0 0 0
1952 1 10.0213844747258 1.47673183672213 10.013937915440657 0 0 0
2601 1 11.521562545482768 0.044285289152513424 11.473178177359209 0 0 0
2637 1 11.514234625613266 2.922862775794527 11.489500253578305 0 0 0
1954 1 12.962393640312406 1.5114329943398557 10.090720290768385 0 0 0
1956 1 15.888649267199863 1.4896363252732798 10.107076770112968 0 0 0
2603 1 14.428124481541028 0.010241222387504106 11.513526649186828 0 0 0
2639 1 14.427724713390603 2.8582885041658552 11.4839794432551 0 0 0
1958 1 18.778023874288127 1.5039190068228498 9.990341607439042 0 0 0
2605 1 17.344079172566474 0.08323596878007636 11.525906048865536 0 0 0
2641 1 17.33050145655323 2.9436630941141075 11.49414855063758 0 0 0
1960 1 21.707037695360142 1.5240029014618852 10.129386122542083 0 0 0
2607 1 20.241185268119875 0.06646373892438177 11.532286852588632 0 0 0
2643 1 20.25026810236311 2.963123774300758 11.524062820755725 0 0 0
1962 1 24.534521572010334 1.509112169628419 10.06129202068517 0 0 0
2609 1 23.072264252794888 0.011905355332598077 11.554575386349443 0 0 0
2645 1 23.097993022539193 2.9768635036282363 11.530015332196651 0 0 0
1982 1 1.4210500505519377 4.261429306013682 10.05151737279116 0 0 0
2739 1 2.833567055090293 11.527220169556706 11.464688788615796 0 0 0
2667 1 2.8321600016541173 5.7122107012949765 11.502894372816652 0 0 0
1984 1 4.308785520344533 4.312112678723515 10.087346983007693 0 0 0
2669 1 5.749749122583471 5.7893053977078965 11.539115020489147 0 0 0
1986 1 7.1739553454343445 4.363726646481053 10.065852466403985 0 0 0
2671 1 8.628249239470053 5.754140030072775 11.528842149330252 0 0 0
1988 1 10.030631246278118 4.384104164894301 10.001376303281257 0 0 0
2673 1 11.497170057031912 5.756073819958141 11.460482480326853 0 0 0
1990 1 12.934764800546052 4.379404399926997 10.011700708242422 0 0 0
1992 1 15.86801811663529 4.356110331882809 10.01656288116538 0 0 0
2675 1 14.341224607865342 5.834532650481911 11.495282197028535 0 0 0
1994 1 18.753246910093893 4.420407570220315 10.036300599107959 0 0 0
2677 1 17.308333647171644 5.7628598417067645 11.498675970752535 0 0 0
1996 1 21.649654927423025 4.348876795632271 10.095882732729743 0 0 0
2679 1 20.143985798134242 5.9190907451845405 11.491066533829764 0 0 0
2594 1 1.3951108520531144 1.4345936273589843 12.961304037432345 0 0 0
2598 1 7.209312212046852 1.4587184715180765 12.948602695534854 0 0 0
2600 1 10.151881313664635 1.5089795286387993 12.958397961692521 0 0 0
2602 1 13.018045403420325 1.4029354756403074 12.918959021872746 0 0 0
2604 1 15.936493739857635 1.4685009449541768 12.927375988815223 0 0 0
2606 1 18.825071103723452 1.4607896652914163 12.954141737750357 0 0 0
2608 1 21.690255552491585 1.5186254733006084 12.944304717947999 0 0 0
2610 1 24.51889795781969 1.56647590592615 12.949222021754514 0 0 0
2630 1 1.4507733057699157 4.297820823807357 12.97314438560717 0 0 0
2632 1 4.28511642073557 4.292940627586172 12.9711942703589 0 0 0
2748 1 15.75174429642557 12.979698263996685 12.928122983672678 0 0 0
2746 1 12.967266232436861 12.941584324098551 12.880710629126554 0 0 0
2744 1 10.078332911590282 12.967540840316264 12.934704579124261 0 0 0
2634 1 7.221834586330995 4.318034285498324 12.940009232793166 0 0 0
2636 1 10.095575940933793 4.3124461779498695 12.910091368606052 0 0 0
2638 1 12.940579382972517 4.403028688278136 12.955307022243238 0 0 0
2640 1 15.844715464917556 4.391431641722749 12.937082045048564 0 0 0
2642 1 18.807777449444853 4.360285559307183 12.956392496602469 0 0 0
2644 1 21.68456120149414 4.450109412094296 12.966446326524528 0 0 0
2646 1 24.54023739149089 4.380553386335728 12.972933415889598 0 0 0
2666 1 1.4192471923266425 7.204845158459616 12.948153711533639 0 0 0
2668 1 4.2207174972278745 7.1618212816017355 12.95014701571937 0 0 0
2670 1 7.156837365060046 7.161423096113854 12.903625975776608 0 0 0
2672 1 10.076998572253308 7.212011715628996 12.872835976767107 0 0 0
2674 1 12.914654868771517 7.1902826009132825 12.938897529789237 0 0 0
2676 1 15.81393715450633 7.227290546294011 12.971866092378605 0 0 0
2678 1 18.67992143549557 7.235480755617669 12.964776630285668 0 0 0
2680 1 21.69293718527123 7.307372988685792 12.974732693188637 0 0 0
2682 1 24.578030941859502 7.292658694260546 12.952841281051914 0 0 0
2702 1 1.4450135428898738 10.088245470097423 12.923434994135928 0 0 0
2704 1 4.274534442886334 10.079058878285052 12.962199308893043 0 0 0
2708 1 10.043457038283366 10.140118181020426 12.945468895846302 0 0 0
2710 1 12.947601756660768 10.153438234616013 12.957563437278877 0 0 0
2712 1 15.820255361298809 10.065055550106626 12.87892365431183 0 0 0
2714 1 18.712381959474644 10.143866901935178 12.952589322019366 0 0 0
2716 1 21.603564860435334 10.245258681062317 12.956952530560342 0 0 0
2718 1 24.492375271901892 10.187577051741364 12.919417284709485 0 0 0
5346 1 24.499804616254323 12.958028734936814 24.485102533813418 0 0 0
5345 1 23.03142878541116 11.593028969172558 23.04631436917006 0 0 0
3242 1 1.360270285764922 1.516417784235179 15.869193194015526 0 0 0
3243 1 2.7985284070802936 0.03676254642405392 14.477668484183122 0 0 0
3277 1 0.003956258057415061 2.9412915642472193 14.436264471314567 0 0 0
3279 1 2.82963637410239 2.8263045283257977 14.367167874046977 0 0 0
2596 1 4.360992409085675 1.495276935324031 12.985755344996738 0 0 0
3244 1 4.289954217078921 1.5352958618376369 15.867759360699413 0 0 0
3245 1 5.769499673470289 0.05542475643186225 14.416273280400302 0 0 0
3281 1 5.740977774358361 2.9403339763748138 14.452595620447907 0 0 0
5344 1 21.53283623154067 12.962756159985306 24.521079381833413 0 0 0
3246 1 7.247429253544363 1.4456264260081941 15.798829784493767 0 0 0
3247 1 8.706395251080595 0.0834413869319612 14.357394492474652 0 0 0
3283 1 8.63703231982371 2.8929878616574993 14.348710944204484 0 0 0
5338 1 12.998715670298816 12.96799917835293 24.4526158553348 0 0 0
3248 1 10.120925424251535 1.5523306629470892 15.735317633683739 0 0 0
3249 1 11.58947722223503 0.06555652321742922 14.403780799036422 0 0 0
3285 1 11.61512717285819 2.915567965215511 14.358245082512662 0 0 0
5332 1 4.318308710450483 12.95277418702638 24.435874820988275 0 0 0
4698 1 24.455153404100212 12.969142288846726 21.54933363496567 0 0 0
3250 1 13.010052431392566 1.4723407032286708 15.804687486423175 0 0 0
3251 1 14.472698365256711 0.04129142255835124 14.418460675180848 0 0 0
3252 1 15.88072594618805 1.4944424322711802 15.757918578298677 0 0 0
3287 1 14.414059888405836 2.8969138593796404 14.260343245147249 0 0 0
4690 1 12.944255131725557 12.961423551120005 21.633695238780383 0 0 0
3253 1 17.370765886727128 0.026500181568143096 14.360381509673386 0 0 0
3254 1 18.797655799335555 1.5472538370291424 15.802362848111235 0 0 0
3289 1 17.376906870419166 2.8586586941052903 14.353124640879107 0 0 0
4684 1 4.28782153878438 12.977487595065737 21.577244481070355 0 0 0
3255 1 20.223982738897032 0.06087538041161676 14.439840840981233 0 0 0
3256 1 21.686951524703375 1.4822396100432615 15.80666905266746 0 0 0
3291 1 20.27682989101969 3.020761009083299 14.338166308370175 0 0 0
4038 1 7.138014623441222 12.975418032234245 18.66622115008317 0 0 0
3257 1 23.122712118295514 0.07123891240950667 14.427671625631671 0 0 0
3258 1 24.529854867942216 1.542285386319652 15.803236995360518 0 0 0
3293 1 23.057977016306296 2.9711721849252593 14.442235153936192 0 0 0
4036 1 4.342170939609947 12.941645881384938 18.674522167556336 0 0 0
3278 1 1.4652158923151575 4.325555613718605 15.878936549415068 0 0 0
5310 1 24.490288047100712 10.134194243946087 24.487456432685846 0 0 0
3315 1 2.874290158148171 5.729553804983794 14.41430841749045 0 0 0
3388 1 4.318016415914711 12.97295195788203 15.8395832701432 0 0 0
3280 1 4.259854952887176 4.311745595802778 15.860006176106605 0 0 0
3317 1 5.742490838098569 5.751634849311013 14.395603199904416 0 0 0
4051 1 25.93103224627774 11.579671612314534 17.28127381735591 0 0 0
3282 1 7.251696663789241 4.336459482283857 15.845712487833364 0 0 0
3319 1 8.600557934274603 5.768246971220885 14.407354801693938 0 0 0
4015 1 25.94682406102611 8.798009575003212 17.239000110101056 0 0 0
3284 1 10.053390777725111 4.303327291803083 15.872531854287766 0 0 0
3321 1 11.455477908776519 5.800783862815301 14.394295221360295 0 0 0
3943 1 25.926980778656226 2.9377769506048885 17.25268901598108 0 0 0
3907 1 25.956211086285748 0.05506295779097618 17.266735171707598 0 0 0
3286 1 13.002545645870809 4.373433423200257 15.809197058896665 0 0 0
3288 1 15.867474305274914 4.306336095155086 15.803053685569614 0 0 0
3323 1 14.399136040015538 5.768520738992744 14.369299107319437 0 0 0
3367 1 25.94096323584473 8.749157400776046 14.34839147755776 0 0 0
3290 1 18.77695719656027 4.383805920481144 15.780205339012957 0 0 0
3325 1 17.250112321447048 5.791747147142695 14.399565044491949 0 0 0
3331 1 25.92029133150619 5.84998330570873 14.394533405510941 0 0 0
3292 1 21.657152557808317 4.442695404598294 15.792403493695145 0 0 0
3327 1 20.200044311842266 5.8575172373718205 14.380651879169918 0 0 0
5300 1 10.058679514282424 10.117817535267513 24.447487878949907 0 0 0
3294 1 24.55323219638226 4.381589032389726 15.845928939488187 0 0 0
3329 1 23.16532206422265 5.9025248420681296 14.392825037750182 0 0 0
5335 1 8.67334121500779 11.551888703843016 23.04096590095741 0 0 0
3314 1 1.4027430182786629 7.2022188023493845 15.83538435868413 0 0 0
3349 1 0.01621147420960887 8.676874099272588 14.395637928436365 0 0 0
3351 1 2.8978950441198803 8.580071014719808 14.421952803551376 0 0 0