LAMMPS data file via write_data, version 2 Aug 2023, timestep = 2100000, units = metal

11664 atoms
1 atom types

-0.6297514584442574 52.541960409753045 xlo xhi
-0.6292670394936799 52.54244482870024 ylo yhi
-0.6304154040540197 52.54129646414175 zlo zhi

Masses

1 55.847

Atoms # atomic

2 1 1.0134549731746123 1.8380945893910083 -0.41878500749163616 0 0 0
651 1 2.516270843883518 0.2563021787891787 1.185516068190516 0 0 0
84 1 15.875520055877331 7.3894450365753475 -0.052739424826192094 0 0 0
653 1 5.158439126099903 0.6676962963091797 1.2231344224929193 0 0 0
4 1 3.7740547600209045 1.869303215811121 -0.33241317320083735 0 0 0
652 1 3.771013954463653 1.923690943710958 2.6256701303264545 0 0 0
6 1 6.653042696695821 1.8200485599634124 -0.49256302701913424 0 0 0
655 1 8.176281754952528 0.5137052445675814 0.9574231365837638 0 0 0
1333 1 -0.6208848264177801 3.269790360933125 4.301905449901534 0 0 0
657 1 11.263956233782109 0.058072657408043016 1.1646989754479506 0 0 0
656 1 9.666714929957212 1.5027690100496183 2.6394063764242532 0 0 0
658 1 12.713371229115475 1.9156066772781344 2.9075244281852965 0 0 0
10 1 12.504262592589372 1.8604554930100123 -0.26265268992052737 0 0 0
659 1 14.156589226367208 0.4094135247372568 1.3758276797147109 0 0 0
12 1 15.538118069840095 1.9758162238856127 -0.18508741538657453 0 0 0
661 1 17.330921911654666 0.48559906436464195 1.145141673145792 0 0 0
14 1 18.93300357972762 1.8013160489871374 -0.1759898327874832 0 0 0
1945 1 -0.5201612488706933 0.2698191337349609 7.2642801106441635 0 0 0
663 1 20.407058825469257 0.36915181113430084 1.131246323004015 0 0 0
18 1 24.507821677130813 1.7950609357950151 -0.1486308162631957 0 0 0
665 1 23.169902423159055 0.23126186231809887 1.238434117888655 0 0 0
38 1 0.7076668272027509 4.665476920352586 -0.11679430358570075 0 0 0
687 1 2.1948665230310285 3.2892448104462577 1.183317381629593 0 0 0
686 1 0.7339075958301358 4.72890890196106 2.85441191046029 0 0 0
793 1 -0.43774411494045223 11.99321825591397 1.3631030117112106 0 0 0
689 1 5.292193895435236 3.432160698898108 1.1236798843274083 0 0 0
40 1 3.745828200669054 4.808288776874766 -0.39135728661561886 0 0 0
688 1 3.739153074262444 4.639386366461956 2.6965718613020138 0 0 0
691 1 8.217604958813997 3.2807303216296413 1.299386261524208 0 0 0
42 1 6.701446119688746 4.96738235542952 -0.2183038093865155 0 0 0
690 1 6.840004384882665 5.059427163764193 2.3504160838872394 0 0 0
693 1 11.208075998434552 3.245661811896017 1.3115783137606563 0 0 0
44 1 9.693181028168876 4.580542177372014 -0.26452833993353936 0 0 0
692 1 10.0849572413932 4.87148258986096 2.573466853935709 0 0 0
46 1 12.688115382232692 4.42553453446405 -0.13081241178999287 0 0 0
694 1 12.65524765574382 4.668446059707553 2.794810920807831 0 0 0
695 1 14.134388915274986 3.2382777595392804 1.349680297602492 0 0 0
48 1 15.713171137479282 4.616928682791028 -0.01668084255697977 0 0 0
696 1 15.778525634158488 4.526939429933719 2.9511803785052457 0 0 0
50 1 18.498473716533127 4.836881367399011 -0.026299402146279682 0 0 0
697 1 17.41210910235983 2.998429583174433 1.5205701451117957 0 0 0
698 1 18.64496019113576 4.6279116069787944 2.93817591583612 0 0 0
699 1 20.303452591829767 3.20737038922545 1.5623463134902384 0 0 0
52 1 21.708048093584846 4.607868024693262 0.16279995288731341 0 0 0
701 1 23.219218811352754 3.3537056023343377 1.6356107167748957 0 0 0
54 1 24.53966467252788 4.687851895713938 -0.1424256088537335 0 0 0
702 1 24.54347498155631 5.007171450731559 2.8543536832411602 0 0 0
2753 1 23.007877453046763 12.005372093672516 10.243914573227311 0 0 0
723 1 2.2420117832786026 6.04916890945312 1.4309353421522202 0 0 0
74 1 0.9333082275952587 7.537066792516303 -0.30916581929846476 0 0 0
3255 1 20.261150561023396 0.48969671094669853 12.35150306318663 0 0 0
2710 1 12.61452799886137 10.626362150670385 11.301366754091992 0 0 0
725 1 5.205759103027594 6.301424172244808 1.1156870063819773 0 0 0
76 1 3.536687990185988 7.622151383163484 -0.23779925030520693 0 0 0
761 1 5.295721135030495 9.103409388859422 1.2162592263918772 0 0 0
727 1 8.447426187939524 6.389514762473917 1.2047908948712263 0 0 0
78 1 6.871785709710096 7.687299413345981 -0.3498410846459274 0 0 0
726 1 6.804884317198881 7.662266451452876 2.661494106817316 0 0 0
729 1 11.598256655233625 6.2621636645315375 1.073253555133976 0 0 0
80 1 9.96246390803071 7.593954985495612 -0.4448323217804843 0 0 0
731 1 14.023531200099159 6.095899788601882 1.4052106339452353 0 0 0
732 1 15.55800471189091 7.79873532463815 2.5658634879594446 0 0 0
767 1 14.08605467537424 9.013271699561969 1.118696147977588 0 0 0
730 1 12.672740786322153 7.764275406653168 2.7557503336634315 0 0 0
2712 1 15.531297220337695 10.898876963857134 11.54481947870215 0 0 0
82 1 13.054151337925193 7.46229420184406 -0.36658487085697944 0 0 0
733 1 17.1886421602249 6.1047244617320375 1.613973533273266 0 0 0
86 1 18.52456027899581 7.486776365510156 -0.4924791853338867 0 0 0
734 1 18.590259778322523 7.6508931864359475 2.7749399668284807 0 0 0
735 1 20.176050709056536 6.479502990373958 1.3391899328776302 0 0 0
88 1 21.561770049033075 7.663998253597024 -0.2833824071858102 0 0 0
771 1 20.08399414069145 9.19037560699766 1.1245199787550848 0 0 0
736 1 21.77027508568285 7.779398538250911 2.5566162890310227 0 0 0
737 1 23.088596908252942 6.240986627963537 1.2118037218864433 0 0 0
90 1 24.53597259925405 7.764720301177023 -0.4990445466035509 0 0 0
738 1 24.885428531324397 7.783606468361196 2.6802793207496682 0 0 0
16 1 21.944208656878207 1.8999313082441192 -0.24621280765779446 0 0 0
759 1 2.031054732567569 9.11039282117561 1.0222519042921243 0 0 0
110 1 0.8502927128424365 10.815155251714666 -0.4310701889912719 0 0 0
795 1 2.504597767253381 12.19865245317399 1.2320590045536328 0 0 0
667 1 25.81017891026593 0.18645923334055026 1.1256246939659957 0 0 0
112 1 3.7684981448580697 10.708281776186617 -0.24130682937945197 0 0 0
797 1 5.625421650600225 12.091935737480473 1.1100904496916557 0 0 0
763 1 8.354738245408482 8.936303329299442 1.0837326170499113 0 0 0
114 1 6.906380947797485 10.514929931112441 -0.18616404263945385 0 0 0
799 1 8.467609560733678 12.08976997921728 1.5782797435848166 0 0 0
765 1 11.588209382962482 9.103396494539602 0.9680243007856997 0 0 0
116 1 9.788345863096756 10.67361045737059 -0.29786629811658755 0 0 0
801 1 11.096158136571766 12.187701907548835 1.5676977996780725 0 0 0
803 1 14.148386900335394 12.149106046249715 1.657661947692528 0 0 0
766 1 12.773279290424803 10.558978374088381 2.758184409144207 0 0 0
120 1 15.620317229566464 10.415871706977791 -0.041135251102625725 0 0 0
118 1 12.763888093079707 10.87033154001023 -0.40022699345939133 0 0 0
769 1 17.49212546181233 9.131543009318394 1.1382545682172311 0 0 0
122 1 18.744872947877514 10.639859887344354 -0.2881564800004215 0 0 0
805 1 17.17012926629792 11.89211349876166 1.1577153016812147 0 0 0
770 1 18.904142697326495 10.617101302362524 2.9210885853181776 0 0 0
124 1 21.503827042773235 10.676623245340897 -0.31182917842347446 0 0 0
807 1 20.104986649346653 12.083112479904337 1.1969606332678675 0 0 0
772 1 21.724180983514476 10.561238412214365 2.4434200079394457 0 0 0
773 1 23.34746506024684 9.210057670825414 1.1598459437235171 0 0 0
126 1 24.83551856507606 10.759826500457434 -0.3693109146709074 0 0 0
809 1 23.14689125370272 11.891652927760777 1.063527496673764 0 0 0
774 1 24.74149923257576 10.612185814618165 2.559862314713198 0 0 0
650 1 0.9511882403297582 1.6144306870125593 2.4691074641826125 0 0 0
1299 1 2.1266731379554447 0.6629845674813357 4.443434798687967 0 0 0
1298 1 0.7493768163526577 1.8642630883869593 5.9252257814615525 0 0 0
2747 1 14.149799307104509 12.280895142930959 10.106280155704138 0 0 0
1301 1 5.5292783046769465 0.1875313981738571 4.144101119198658 0 0 0
1300 1 3.969569392864522 1.863596860487505 5.651570392379899 0 0 0
654 1 6.85683476519998 1.6528109336173311 2.7111999615122775 0 0 0
1303 1 8.21263149416455 0.2147698410745149 4.316984830952318 0 0 0
1302 1 6.635264023665954 1.995819008123529 5.629013122370229 0 0 0
1305 1 11.159626968783046 0.10148425986182097 4.0944512516557365 0 0 0
1304 1 9.993858552393684 1.9295896775787984 5.906993912078005 0 0 0
660 1 15.688729107006242 1.7966443830978505 2.750547201931793 0 0 0
1306 1 12.741785799812599 1.932179954932693 5.536195711158633 0 0 0
1307 1 14.30129519718548 0.0741670484253576 4.361981110485999 0 0 0
1308 1 15.613849448121957 1.6789042770571876 5.857574561681004 0 0 0
662 1 18.95326356785753 1.524772985506703 2.824042222988301 0 0 0
1309 1 17.018163935137032 0.22144779747316257 4.038112445191311 0 0 0
1310 1 18.521930970227892 1.5434312428455703 5.784303702243862 0 0 0
664 1 21.869895380219308 1.9038321867311079 2.9942870538699173 0 0 0
1311 1 20.35046865648212 0.18266282135617729 4.35165786762386 0 0 0
1312 1 21.39863577343507 1.989394233376819 5.902309191842841 0 0 0
666 1 24.58520495052044 1.515651388988105 2.9772256238012864 0 0 0
1313 1 23.135880785414596 0.40004346300045546 4.545620417546781 0 0 0
1314 1 24.76820491063515 1.9843270415943697 5.706560223724935 0 0 0
2708 1 9.961948877694363 10.529263342513488 11.390893510404688 0 0 0
1335 1 2.2316035689269302 3.064209010889326 4.076314727860216 0 0 0
1334 1 0.9860162882489483 4.751135603986438 5.516768030813972 0 0 0
1337 1 5.582962367271091 3.303887847613545 3.8554004384178127 0 0 0
1336 1 3.7003282805199396 4.778383653164531 5.540552017980888 0 0 0
1339 1 8.468362317960532 3.195527606171258 3.8180954137469545 0 0 0
1338 1 7.000713534157752 4.732443042135363 5.393482578127878 0 0 0
1341 1 11.144007268952015 3.334136118964644 4.292111454799262 0 0 0
1340 1 9.591929428544377 4.799741667274822 5.720620631858998 0 0 0
1342 1 13.054793286412108 4.858908062485148 5.472741229951927 0 0 0
1343 1 14.309424479040137 3.1355415638100514 4.148292950940033 0 0 0
1344 1 15.697552178250504 4.749858893684527 5.562724356577245 0 0 0
1345 1 17.153950153840412 3.2036952316643825 4.379111503749779 0 0 0
1346 1 18.423232778051798 4.839766335012526 5.265650206966008 0 0 0
700 1 21.471034189259296 4.840029366298741 2.8731422062029686 0 0 0
1347 1 20.18366528292603 3.272780124960633 4.279703395066482 0 0 0
1348 1 21.793943893353585 4.9504613153000285 5.802536794006654 0 0 0
1349 1 23.161303467747096 3.2719163262595967 4.458220095889615 0 0 0
1350 1 24.992595820834904 4.7994123435633576 5.611774056421856 0 0 0
722 1 0.7104704686962153 7.743288610245587 2.6720291399582443 0 0 0
1370 1 0.8233457530076078 7.450214402114993 5.583938150762286 0 0 0
1405 1 -0.46033716380743284 9.132528952277577 4.275328116392259 0 0 0
724 1 3.756130093271768 7.801825429608092 2.4278699881159036 0 0 0
1371 1 2.5311033131595737 6.282325192617934 3.94655309796204 0 0 0
1373 1 5.183504255334442 6.108949207765525 3.9571566774682134 0 0 0
1372 1 3.822080610695104 7.572907681340357 5.668774191268571 0 0 0
1409 1 5.242318832176586 8.855060425444794 4.166372930814501 0 0 0
1375 1 8.549326398371338 6.254473858664417 4.025124229432684 0 0 0
1374 1 6.914052912696948 7.463293740062191 5.569050634942861 0 0 0
1411 1 8.484169552422735 8.900370544405767 4.3075557628198196 0 0 0
728 1 10.238792103820629 7.668960823333558 2.503793372317053 0 0 0
1377 1 11.214932544614726 6.255667056556689 4.425606552342193 0 0 0
1376 1 9.866717648160387 7.611099417052376 5.807015426489655 0 0 0
1413 1 11.331626615953004 8.887243457929289 4.371634177585099 0 0 0
1379 1 14.427058436540356 6.333961983298502 4.173590968461961 0 0 0
1378 1 12.921710381447994 7.596939512342713 5.721510781019928 0 0 0
1380 1 15.747247805791929 7.812610501537552 5.884765049810891 0 0 0
1415 1 14.270101734883681 8.976841735331162 4.123804282790879 0 0 0
1381 1 16.94124976092923 6.333503618049928 4.099419499507171 0 0 0
1382 1 18.458972231286435 7.750669355144721 5.504341283081975 0 0 0
1417 1 17.214507770643692 9.284772257563988 3.9250818198523643 0 0 0
1383 1 20.205405635694945 6.377852528744172 4.454900623699201 0 0 0
1384 1 21.721418416172373 7.465399691308722 6.08170552764886 0 0 0
1419 1 20.468180226790484 9.09990313284945 4.3726205802836935 0 0 0
1385 1 23.238191036220204 6.4644257651392545 4.230625663003382 0 0 0
1386 1 24.918692966940064 7.946175647045731 5.574607825174635 0 0 0
1421 1 23.074451629336334 9.209860909300943 4.207207484074405 0 0 0
2629 1 -0.5415974756772914 3.0437436893044265 10.098587005522324 0 0 0
1407 1 2.2977668807318317 8.997046526172094 4.334240520576901 0 0 0
758 1 0.8351233501837323 10.547818064206286 2.7498028483391086 0 0 0
1443 1 2.6334219073487506 11.99684248110532 4.504645205759565 0 0 0
760 1 3.850263899198346 10.572860591695767 2.7116981857774527 0 0 0
1445 1 5.307132944805728 11.951056292422795 4.353492327863033 0 0 0
1408 1 4.027684768079724 10.31412063321205 6.031018754032684 0 0 0
762 1 6.846446552916407 10.383765336159293 2.6344859462520644 0 0 0
1447 1 8.147279047866883 11.99206118068749 4.269853376742847 0 0 0
1410 1 6.855614295923531 10.27324470751726 5.667230029783596 0 0 0
764 1 9.79216563714156 10.536409226484372 2.832600756222796 0 0 0
1449 1 11.31889459512679 11.945120184334538 4.341025804006792 0 0 0
1412 1 9.818323302308436 10.64180832673604 5.784805914910173 0 0 0
1414 1 12.862477848446092 10.51957243331645 5.542100662285369 0 0 0
768 1 15.558146264590043 10.553492695770169 2.8242094714145054 0 0 0
1451 1 14.252912610433583 12.020386379679262 4.174849957011356 0 0 0
1416 1 15.706673705041219 10.581101520951373 5.500006085039195 0 0 0
1453 1 17.14742340362649 12.218546835600689 4.355823312096729 0 0 0
1418 1 18.913960850172185 10.638674711309466 5.403672012395748 0 0 0
1455 1 20.32904565017376 12.094421274815168 4.045399837063563 0 0 0
1420 1 21.922002082856025 10.733103738836608 5.71078279615112 0 0 0
1457 1 23.040120826733887 12.197681746840987 4.079154844295844 0 0 0
1422 1 24.830618734733918 10.67239565096837 5.37184832175134 0 0 0
2718 1 24.770631050624026 10.522770752868222 11.730583286842723 0 0 0
1946 1 0.9525387059379165 1.7110984650344605 8.767898918867983 0 0 0
1947 1 2.3986437753966796 0.30171418503747316 7.131629443423305 0 0 0
2743 1 8.379169687374429 11.591044569947684 9.892515649187372 0 0 0
1949 1 5.443977230773987 0.5038349095887866 7.06069332091831 0 0 0
1948 1 4.048422267592968 1.8425148481769065 8.499229292804788 0 0 0
1951 1 8.194359749571555 0.5006939235214258 6.9825584648736845 0 0 0
1950 1 6.912696154713396 1.7199887539317298 8.588252745785535 0 0 0
1952 1 9.74581772545634 1.8717860997723825 8.285093402001074 0 0 0
1953 1 11.523136845222416 0.4271219975058387 7.1493000198146825 0 0 0
1954 1 12.84950597702717 1.7087223789551853 8.660497435261062 0 0 0
1955 1 14.232531446018111 0.17333160200378694 7.197048982472381 0 0 0
1956 1 15.705998743771495 1.5841721621173743 8.482639227229472 0 0 0
1957 1 17.12485916530271 -0.1080012008751482 7.403542267154483 0 0 0
1958 1 18.8436780258076 1.591067939006559 8.857539891787063 0 0 0
1959 1 20.237400657216423 0.22877663893740197 7.236368982109088 0 0 0
1960 1 21.482207276591605 1.8419397782129252 8.911658911273683 0 0 0
1961 1 23.049657467905785 0.3024600477374043 6.9916550470352075 0 0 0
1962 1 24.676907667542267 1.5007904880851641 8.697112416974148 0 0 0
1982 1 0.95052913681276 4.690972592509493 8.694702705192281 0 0 0
1983 1 2.605060469303053 3.256594178343391 7.208403708060717 0 0 0
1981 1 -0.5043524950463749 3.501433565369225 7.074042430607988 0 0 0
1985 1 5.389006081443507 3.361437824521897 7.27616875625977 0 0 0
1984 1 3.9876155949830387 4.747733598301905 8.81610965361387 0 0 0
2019 1 2.304797085877005 6.225329074670333 7.279520017600759 0 0 0
1987 1 8.292349280313926 3.349806911271965 7.075857870487575 0 0 0
1986 1 6.788773467141834 4.761448460425248 8.881377785181133 0 0 0
1988 1 9.990858698182251 4.673331358265287 8.712811547178388 0 0 0
1989 1 11.493974602349914 3.404715636019465 7.169500828615548 0 0 0
1990 1 12.91223257016829 4.6430804750532095 8.755075220065182 0 0 0
1991 1 14.17395245891876 3.39935612585251 7.001083972194668 0 0 0
1992 1 15.794607029342519 4.874901715109312 8.671788135913284 0 0 0
2027 1 14.438442019612205 6.33026647691959 7.291542471319165 0 0 0
1993 1 17.468728044939017 3.1604980734164934 7.512232382216066 0 0 0
1994 1 18.545947220107767 4.916661019637243 8.733923826568406 0 0 0
1995 1 20.06157431565393 3.5824228137971774 7.249890147095498 0 0 0
1996 1 21.838477771349773 4.84560375101949 8.44793640364987 0 0 0
1997 1 23.483049701847918 3.4352365642541507 7.196829457790775 0 0 0
1998 1 24.65502827005111 4.884436199096587 8.790902147814581 0 0 0
2716 1 21.576076040510422 10.603013128934279 11.662536442440972 0 0 0
2053 1 -0.3433080955700548 9.15710232134204 7.087364693679818 0 0 0
2751 1 20.15376233402714 12.017337275258619 9.985053972959419 0 0 0
2018 1 0.8019642559178262 7.630739161301708 8.808781179658263 0 0 0
2055 1 2.1804485300106298 8.990891266807392 7.37641958256339 0 0 0
2021 1 5.437042566513733 5.920346109071709 7.177404237496832 0 0 0
2020 1 3.9122563814467934 7.764547732799963 8.721776194104315 0 0 0
2057 1 5.567619388727593 8.759180112834814 7.065566657307185 0 0 0
2023 1 8.462815795166563 6.160918300361279 7.224457333937064 0 0 0
2022 1 6.555911747340581 7.345582099248475 8.729090114200416 0 0 0
2059 1 8.019052007849035 8.874676099910383 7.260575277755371 0 0 0
2025 1 11.314312355482489 6.035776052646425 7.141640888070847 0 0 0
2024 1 9.831081118450676 7.604521330369797 8.548719602610033 0 0 0
2061 1 11.481777030461242 9.312379217997092 6.986085440058233 0 0 0
2026 1 12.731894495371641 7.794344575074694 8.432915369744588 0 0 0
2028 1 15.989987049479542 7.832159567512031 8.647152068980276 0 0 0
2029 1 17.126595050889495 6.211150088424964 6.993101942823774 0 0 0
2030 1 18.383361370180015 7.957627365572769 8.710845450591675 0 0 0
2065 1 17.426167298762348 9.38858004117141 6.9363629987069535 0 0 0
2031 1 19.808225993464962 6.2894406698067495 7.12086487024519 0 0 0
2032 1 21.939818953690082 7.835686940651014 8.533358119697553 0 0 0
2067 1 20.402498833728078 9.195072874677177 7.0475213872995095 0 0 0
2033 1 23.614093952781953 6.398772602254957 6.921800217981428 0 0 0
2034 1 24.776494801053232 7.558414149315686 8.98456914021796 0 0 0
2069 1 23.52762239186087 9.125557543615141 7.300531199331026 0 0 0
1406 1 1.0412437225949924 10.616864153624519 5.692470359586095 0 0 0
2054 1 0.7528270252238871 10.59087544139229 8.862719914087242 0 0 0
2089 1 -0.4000954393035516 12.336552944556997 7.410625965297367 0 0 0
2091 1 2.4261304179980256 11.888767831144468 7.04364433599753 0 0 0
2093 1 5.601293504089642 12.179385648816972 7.041905037852703 0 0 0
2056 1 4.020695279577556 10.763233677062907 8.43481134851584 0 0 0
2095 1 7.971650784842732 11.96281526157815 7.085357009825174 0 0 0
2058 1 6.550084572193901 10.485132785289332 8.8038240492311 0 0 0
2060 1 9.796285936013946 10.569196608773037 8.210162874160437 0 0 0
2097 1 11.639053671760783 12.059951194742592 7.177362812407931 0 0 0
2062 1 12.768306305505869 10.736047598335466 8.801534578601242 0 0 0
2063 1 14.297117793967384 9.240226804227843 7.248649945580923 0 0 0
2099 1 14.300036292502565 11.85712879465446 7.091745143800216 0 0 0
2064 1 15.657525316743271 10.645106954679965 8.66577073702951 0 0 0
2066 1 18.542994665219034 10.439495108161562 8.867601156856079 0 0 0
2101 1 17.19264868458002 12.02430136949065 7.330849704296657 0 0 0
2103 1 20.24053478388879 11.814612527946156 6.990517234304993 0 0 0
2068 1 21.69186861374594 10.543152029242515 8.72154561465663 0 0 0
2070 1 24.684433075482055 10.427949852220504 8.969880913470305 0 0 0
2105 1 23.408432060311053 11.816254349315297 7.2883396405807215 0 0 0
2594 1 0.8939293068923462 1.717379650853347 11.498780550862126 0 0 0
2595 1 2.6645829671621453 0.25191958330723585 10.236887647470766 0 0 0
2706 1 6.767214642109069 10.633858706028366 11.403011925122694 0 0 0
2596 1 3.824296182921972 1.8297293741746592 11.7096198137957 0 0 0
2597 1 5.273205388780268 0.6103294999289133 10.242394837274755 0 0 0
2599 1 8.501637693623906 0.3932033822657153 9.867469332703134 0 0 0
2598 1 7.116567768142628 1.7239047375437986 11.366143180225075 0 0 0
2600 1 9.996419957750497 1.7899901706031862 11.728851488175286 0 0 0
2601 1 11.270963828522603 0.4318300470059857 10.184763494883926 0 0 0
2602 1 12.983407665221392 1.71002409423838 11.71944770531201 0 0 0
2603 1 14.514005296180803 0.30731763972814297 10.228907771116356 0 0 0
2604 1 15.648930914874832 1.921309985206431 11.656990856342816 0 0 0
2605 1 17.438619243248766 0.03690276298156636 10.06000708090705 0 0 0
2606 1 18.510164583740124 1.9853358143783866 11.49814629959303 0 0 0
2607 1 20.179127572568568 0.015411663083337634 9.963339348380474 0 0 0
2608 1 21.80496137454186 1.9778651238805467 11.212942875201474 0 0 0
2609 1 22.913754004391507 0.2058870723784868 10.01157716870764 0 0 0
2610 1 24.38372222928167 1.8928811644949044 11.503362861782898 0 0 0
2745 1 11.137591148839693 12.206938251475913 9.773163443248876 0 0 0
2630 1 0.6755178906527577 4.675084465344774 11.542921904364619 0 0 0
2631 1 2.481140459686742 3.378124949285266 10.225833832938521 0 0 0
757 1 -0.3670004979631478 9.182993832590725 0.9796946270778779 0 0 0
2633 1 5.366605264610929 3.137088123384233 10.140558972911483 0 0 0
2632 1 3.9463728551581756 4.881708302844069 11.872310983599245 0 0 0
2635 1 8.401332344186553 3.1595152005045724 9.869920421194115 0 0 0
2634 1 6.731016629267717 4.716903254691921 11.506045413537098 0 0 0
2637 1 11.150416960604597 3.125285408941284 10.171195608848716 0 0 0
2636 1 9.984180287663099 4.57634334908889 11.931180387037331 0 0 0
2638 1 12.808516741596186 4.805059112225912 11.264526001453103 0 0 0
2639 1 14.126304918936714 3.1223886519296644 10.110611279896947 0 0 0
2640 1 15.544761488590744 4.638184413396267 11.591231650947076 0 0 0
2641 1 16.913623395668484 3.158219199099948 9.888758895595316 0 0 0
2642 1 18.39218255005582 4.78691378189462 11.243828039938405 0 0 0
2643 1 20.043562704889908 3.4081891802155395 10.105785748822651 0 0 0
2644 1 21.556745440146315 4.812078839729918 11.569156048570372 0 0 0
2714 1 18.779687667184792 10.259870929930285 11.576913154576511 0 0 0
2645 1 23.257688790150123 3.3021411267531975 9.901336050976338 0 0 0
2646 1 24.476251080874533 4.620558872451306 11.55282784868248 0 0 0
3253 1 17.155499493976645 0.09623734409279938 12.66077739779079 0 0 0
2749 1 17.309156765993045 12.166890885047474 9.877147391118584 0 0 0
2666 1 0.6564372449478053 7.370473627571083 11.695071228444363 0 0 0
2667 1 2.1382379438371375 6.149192350199978 10.077083138596224 0 0 0
2669 1 5.243226446680635 6.220206761421666 10.318508153565068 0 0 0
2668 1 3.647285708395324 7.566002487975931 11.572745834614597 0 0 0
2705 1 5.2819112730367355 9.056816723297683 10.274451554678661 0 0 0
2703 1 2.353386888197669 9.213251526917583 9.997313709808367 0 0 0
2707 1 8.265475210767132 8.945104275283457 9.905368551375517 0 0 0
2671 1 8.516523034323342 5.95317273755593 10.299185758685242 0 0 0
2670 1 6.9591331628978725 7.573209053831118 11.455534804751261 0 0 0
2709 1 11.10679674395773 9.173021493121313 9.831871142576457 0 0 0
2672 1 9.92065201373604 7.6796735124358175 11.702909606355504 0 0 0
2673 1 11.354643719407884 6.320084956292917 10.1667162940033 0 0 0
2674 1 12.818313014609632 7.8124971390022875 11.58077699857008 0 0 0
2675 1 14.289735789654955 6.500891934138951 9.949884684638217 0 0 0
2711 1 14.130743932742106 9.2174621877827 10.037538785841425 0 0 0
2676 1 15.443121468012905 7.783880951175421 11.811965815569323 0 0 0
2677 1 16.875054058074046 6.4006163930209246 10.29514982955434 0 0 0
2713 1 17.091144460948875 9.079089519887312 10.35753315475779 0 0 0
2678 1 18.60978076695037 7.751961799285015 11.632158609190862 0 0 0
2715 1 20.24221470802837 8.967525751425388 10.056637694768526 0 0 0
2679 1 20.155355496858316 6.228265966876369 9.907208964670653 0 0 0
2680 1 21.50807316495203 7.551332222303653 11.610907393729926 0 0 0
2717 1 23.091584958853943 9.180781109685922 10.284730742434927 0 0 0
2681 1 23.199662022350367 6.281900235552613 10.422893660058401 0 0 0
2682 1 24.87694119558813 7.585747927790349 11.594182583467639 0 0 0
2702 1 0.6881726113328241 10.934614946822895 11.649158779447621 0 0 0
2737 1 -0.5055570582783133 12.401085206122351 10.276103922388707 0 0 0
2739 1 2.404985308053175 12.224511055924259 10.335172992883239 0 0 0
2741 1 5.294087944928379 12.089246341642527 10.183001476673603 0 0 0
2704 1 3.7532865607503023 10.684528979828222 11.729667601560434 0 0 0
1441 1 -0.5586176752974809 12.097025182182827 4.346428422552047 0 0 0
2611 1 25.871908464949502 0.3303646890411389 10.3413385515743 0 0 0
2593 1 -0.4912985622983306 0.08169757918068488 10.105090836606745 0 0 0
1297 1 -0.5494399102970249 0.1945165421811399 4.430575346149762 0 0 0
2701 1 -0.5204613677961589 9.100288162091163 10.250774194273431 0 0 0
3242 1 1.1694985190696452 1.7653440631344668 14.609544673050966 0 0 0
3243 1 2.434639836281359 0.06332814339662163 13.015551059476403 0 0 0
3891 1 2.592462431561477 0.20291411817648441 15.69904513290107 0 0 0
3889 1 -0.44860943541943277 0.10983577135825229 16.063722750749033 0 0 0
3244 1 3.9613977289894695 1.8437870170921 14.469734891435786 0 0 0
3245 1 5.3859680526908535 0.48415620414510374 12.93794356614883 0 0 0
3246 1 6.95031359569086 1.7960726799602131 14.479464781429286 0 0 0
3247 1 8.348413891750926 0.4148389373050585 13.121123122426154 0 0 0
3895 1 8.487141379404596 0.11986257363144037 15.991583254224626 0 0 0
3248 1 10.017477495357424 1.8922244339559975 14.479357081436934 0 0 0
3249 1 11.675012511964338 0.2226108678319776 12.99752987307911 0 0 0
3897 1 11.386534405020672 0.4746129244367514 15.997239048700095 0 0 0
3250 1 13.08760946932623 1.6517461062632086 14.47923361010618 0 0 0
3252 1 15.789485413488748 1.506916355276692 14.41333087359343 0 0 0
3251 1 14.469408659403625 0.02816826901402314 12.883344341469884 0 0 0
3254 1 18.62330658242624 1.6443891779276045 14.086843558636247 0 0 0
5311 1 25.88128489899594 8.632029587009757 21.94862749304345 0 0 0
3256 1 21.383536988886483 1.6424393644292818 14.195288792296536 0 0 0
5203 1 25.726332394881315 0.7314160043735092 21.549468647167394 0 0 0
3903 1 20.021625174710717 0.15794857327181377 16.032199931067126 0 0 0
3258 1 24.36712804077843 1.7951761044289132 14.498050950760984 0 0 0
3257 1 23.066836004780257 0.30574082151741766 12.9317148186582 0 0 0
3905 1 22.56213332160765 0.06657382940045764 15.904109122150746 0 0 0
3278 1 0.8440018286670543 4.5546339262674165 14.684364933825577 0 0 0
3279 1 2.2700899957222185 3.349735413702772 13.028464154767033 0 0 0
3315 1 2.406969396928232 6.1324793992226345 13.31449039027637 0 0 0
3927 1 2.8535294273070413 2.9849122852388605 16.217787435903087 0 0 0
4591 1 25.785363185396793 3.0804295906804837 18.870755092822087 0 0 0
3281 1 5.609423316446076 3.1026710715252417 12.81833854866602 0 0 0
3280 1 4.053881051523239 4.454962806969965 14.61578614874729 0 0 0
3317 1 5.6768722937753955 6.2472923963242195 13.158138339289822 0 0 0
3282 1 6.873607699128081 4.919770952883428 14.725701587420463 0 0 0
3283 1 8.199832972000761 3.3005160038089865 13.084862071831314 0 0 0
3285 1 11.598617423557863 3.114281380758453 13.089423779708383 0 0 0
3284 1 9.920625791561493 4.6961122238505535 14.583349225655192 0 0 0
3969 1 11.278588896030417 6.191541783606819 16.0515678273858 0 0 0
3286 1 12.66629995101173 4.650544108954317 14.762231362133981 0 0 0
3287 1 14.187849068825892 3.3859119033951854 13.071910571916813 0 0 0
3288 1 15.851048583584046 4.788780046275319 14.411541572177851 0 0 0
3289 1 17.191349680477988 3.3994317936602965 12.99106535494917 0 0 0
3290 1 18.62461561185854 4.864134209974283 14.699382810733153 0 0 0
3325 1 17.264924236867213 6.370537097512472 13.235636281783124 0 0 0
3937 1 17.029169783759702 2.98400386787657 15.812061061152903 0 0 0
3292 1 21.542895889589605 4.669667251873766 14.396336798718462 0 0 0
3291 1 20.03939554503489 3.372631231022722 12.958985135759724 0 0 0
3939 1 20.016132987370927 3.170686506495588 15.54707497858858 0 0 0
3293 1 22.934787443209864 3.234735749569278 12.977397603995165 0 0 0
3294 1 24.522456879003897 4.558375390790745 14.563932228348278 0 0 0
5993 1 23.075282940864202 12.032870776073684 24.899628783963436 0 0 0
3314 1 0.9648392034637876 7.861556256077135 14.542508390560643 0 0 0
3351 1 2.0029298161960627 9.395837674395617 12.850502575786786 0 0 0
3259 1 25.76641302222152 0.2797930558217959 13.082688147278343 0 0 0
3316 1 3.8678038682700846 7.76343447023552 14.359362635094577 0 0 0
3353 1 5.476854019499187 8.926035763329507 13.003221984004151 0 0 0
3319 1 8.435955540207551 6.06811702821325 13.056413683429813 0 0 0
3318 1 7.21317012131353 7.716414920208003 14.495749705428787 0 0 0
3355 1 8.319224460093505 9.199845413056135 12.744126393146004 0 0 0
3967 1 8.529820989862328 6.257880024489496 15.872218450121565 0 0 0
3321 1 11.663373376228284 6.205315533919874 12.90213335125426 0 0 0
3320 1 10.063898246621847 7.671823776030498 14.3643628943983 0 0 0
3357 1 11.359409656284107 9.227919912970991 12.944216894838627 0 0 0
3323 1 14.10496362385061 6.276682085663087 13.299346380077344 0 0 0
3322 1 12.655491870511975 7.919778696931477 14.592362918588067 0 0 0
3324 1 15.344182053968405 7.893692461412979 14.623032946359626 0 0 0
3359 1 13.997641770043394 9.42204059856603 12.931331256938682 0 0 0
3971 1 14.408905340291122 5.9629826259390475 16.090337875437676 0 0 0
3326 1 18.624217563571662 7.866976219988636 14.663845741691539 0 0 0
3361 1 17.141257821937135 9.028264040735015 13.16980934315388 0 0 0
3327 1 20.070429639840427 6.0773241212409195 13.169691402455864 0 0 0
3328 1 21.632221290662066 7.5642722729768685 14.64548600852555 0 0 0
3330 1 24.6661987058082 7.5744981875154505 14.74701737021324 0 0 0
3329 1 23.02625127442886 6.263428408888585 13.010307511350204 0 0 0
5869 1 -0.4154808884977158 3.0810897899140293 25.250303421103784 0 0 0
3350 1 0.8004406188618971 10.683636676714023 14.583732334117574 0 0 0
4035 1 2.599886662378892 11.903705792584171 15.895357703847239 0 0 0
3387 1 2.362441368387828 12.21352547484618 13.172928303823936 0 0 0
3352 1 3.960420405003309 10.361571128549008 14.447419798208621 0 0 0