LAMMPS data file via write_data, version 2 Aug 2023, timestep = 2300000, units = metal

11664 atoms
1 atom types

-0.6604877722037479 52.572527615758545 xlo xhi
-0.6598994642168066 52.57311592374187 ylo yhi
-0.6613062336489719 52.571709154311975 zlo zhi

Masses

1 55.847

Atoms # atomic

795 1 2.5257516194461607 12.224458374242825 0.9893665567043506 0 0 0
651 1 2.4033034908765787 0.21972626576149934 1.1618764368441035 0 0 0
649 1 -0.2945848906305788 0.04875882891332661 1.3121706528072208 0 0 0
653 1 5.016033577296269 0.2528106532625427 0.9480188041093571 0 0 0
4 1 3.946879528014221 1.7740333553414613 -0.5425694575849986 0 0 0
652 1 3.8310999241001165 1.9391766926030027 2.3368360790734823 0 0 0
655 1 7.880099442232593 0.3022525735368391 0.9433656144653628 0 0 0
2089 1 -0.6472786573792035 12.457984508451615 7.292733536637504 0 0 0
654 1 6.854783438014027 1.7330951331675255 2.5930383263533896 0 0 0
657 1 11.324779360452206 0.14734167832389378 1.0763855702651512 0 0 0
8 1 9.823469481485104 1.643401911856973 -0.4884597878614937 0 0 0
658 1 12.57026019863221 2.24823736495533 2.7285597466452085 0 0 0
2593 1 -0.3123543414210385 0.09310685975911615 10.421483104648564 0 0 0
659 1 13.866678873009615 0.6269455310248258 1.418723059450469 0 0 0
660 1 15.467664273335611 2.0052734934737866 2.7172041519475156 0 0 0
12 1 15.394216371050714 1.8764942566431668 -0.6452741916222641 0 0 0
14 1 18.165860847698383 2.135211873544593 -0.5983724186739761 0 0 0
661 1 16.759544145160962 0.28396025111556755 0.6380016809034925 0 0 0
663 1 20.353672652437634 0.1737678583112353 1.0828726935892867 0 0 0
665 1 23.160585088291203 0.1654028750433374 1.0846320474500868 0 0 0
16 1 21.620592224183497 1.8531689071731692 -0.14568020519429037 0 0 0
666 1 24.58113904913152 1.8778271606001118 2.713423904551388 0 0 0
86 1 18.61825390934193 7.656192710503687 -0.6239355920500201 0 0 0
88 1 21.413632594627995 7.63550203897795 -0.40366695558275356 0 0 0
38 1 0.9908882007139461 4.825314367076274 -0.17877960312161628 0 0 0
687 1 2.38539218200572 3.209694010985206 1.001334329673807 0 0 0
686 1 1.2137503110572698 4.937565727205734 2.2154325886533015 0 0 0
40 1 3.8748135081131423 4.831011442728548 -0.3842340886412168 0 0 0
689 1 5.492283610637598 3.134870247017526 0.8951424890561115 0 0 0
688 1 3.9113829549521926 4.7308333383480194 2.414103953111566 0 0 0
691 1 8.35525414192605 3.4717738434580694 1.0148189295438492 0 0 0
42 1 6.705065093918539 4.919622287951107 -0.24242453809137188 0 0 0
690 1 6.891659498798337 4.710290246589953 2.573196113622845 0 0 0
693 1 10.974725805631644 3.3578832702480943 0.9019189432844288 0 0 0
44 1 9.617035475981398 4.8218601412789885 -0.45006704653640417 0 0 0
692 1 9.756493616913367 4.8222347170312485 2.735841009733222 0 0 0
46 1 12.606390841394465 4.758118090836268 -0.4582799976526225 0 0 0
695 1 14.030222649325744 3.466621128033072 1.1566157768821332 0 0 0
48 1 15.505656963952376 4.680641527850158 -0.23682266643974448 0 0 0
694 1 12.437805213291968 4.755629721364531 2.7176796901697107 0 0 0
696 1 15.780182731233385 5.008516709732233 2.4312769589331387 0 0 0
50 1 18.50951058682385 4.661256230665438 -0.4847903373490795 0 0 0
697 1 17.17697236500669 2.97940154697141 1.4659222834441579 0 0 0
2665 1 -0.2865416592298362 6.510091609476191 10.368613612314576 0 0 0
699 1 19.800373012615484 3.137147243786894 0.9503119238959878 0 0 0
701 1 23.19106969465486 3.4316383828347297 1.1251312244616598 0 0 0
2629 1 -0.40011647598822936 3.069497540678044 10.254863248582724 0 0 0
702 1 24.370671809054024 4.970662344958564 2.5601909500874402 0 0 0
723 1 2.4854761831920196 6.571228834984248 0.8947727242539301 0 0 0
74 1 0.8519560152589953 8.011457378414928 -0.37586786486212387 0 0 0
759 1 2.439099775061648 9.500154245920049 1.2333596897425934 0 0 0
725 1 5.412658877576398 6.359854699030369 1.2246815009250498 0 0 0
76 1 4.0184926524785975 7.88090895187271 -0.2713407230176853 0 0 0
761 1 5.277804019684797 9.279158034523636 1.6761377906309871 0 0 0
727 1 8.171289953909355 6.339255194671589 1.2913282589727693 0 0 0
78 1 6.910215533994427 7.805723505355084 -0.12778502031618333 0 0 0
726 1 6.697203549007163 7.6081752370972175 2.9284044177869646 0 0 0
729 1 11.21507296975423 6.142098109993569 0.9409240562281238 0 0 0
80 1 9.728747825935729 7.686524418492377 -0.4485602023293388 0 0 0
82 1 12.586673361918885 7.60280543914245 -0.45874335749638806 0 0 0
765 1 11.262424022215441 9.151027638814513 1.3053536899333098 0 0 0
1459 1 25.769820251173613 12.231457279024196 4.080500724251877 0 0 0
730 1 12.611265923968022 7.480414130885128 2.6553215990691377 0 0 0
731 1 14.070448198597745 6.299497343860546 1.196325735667316 0 0 0
733 1 16.927530503372562 6.355285582618633 0.7860853587862962 0 0 0
1441 1 -0.3989092289582532 12.239071674676376 4.239435130665796 0 0 0
1405 1 -0.4131265121049481 9.425720611277953 4.248979589988227 0 0 0
735 1 19.975357065145108 6.320099345199169 1.1267729714057815 0 0 0
771 1 19.87705183026274 9.017456000996965 0.9343273812427557 0 0 0
90 1 24.559830781248984 7.891509509078482 -0.36274751933903987 0 0 0
737 1 22.786576599412626 6.013616739110995 0.6670828293740225 0 0 0
738 1 24.389494940930803 7.590272542388625 2.54344090059042 0 0 0
773 1 22.927720415443517 9.316423199412029 1.0452904034535078 0 0 0
2718 1 24.93709463391303 10.523885842593392 11.298967759443581 0 0 0
1369 1 -0.5290416952129215 6.0670516732347295 4.135103026944584 0 0 0
110 1 0.9791093950600598 10.698763604008889 -0.30798882928049526 0 0 0
54 1 24.47753342437748 4.709091677336544 -0.5076125292629163 0 0 0
757 1 -0.4261998689472679 9.531201215983744 1.1788347141267306 0 0 0
797 1 5.436377860626546 12.200497787550727 1.0236703042972672 0 0 0
112 1 3.9485905419313614 10.623855025473365 -0.2557330369388515 0 0 0
763 1 8.339888688929394 8.941100527033926 1.6496850749158605 0 0 0
114 1 6.990319421797527 10.47274976279123 -0.1842293643753945 0 0 0
799 1 8.192553130653945 12.37710365216915 1.067693409203556 0 0 0
116 1 9.643096697210085 10.60145084678212 -0.2561496247162859 0 0 0
801 1 10.890024066633302 12.040457176587473 1.186826747253924 0 0 0
767 1 14.09430759002747 8.924183945443806 1.1336933882963358 0 0 0
118 1 12.745610156018243 10.693041417137257 0.03420637680296268 0 0 0
803 1 14.128625622218085 12.194243139642998 1.4628617726008173 0 0 0
120 1 15.384978716016459 10.731359721545694 -0.14248871714976896 0 0 0
768 1 15.612644441193947 10.664728787602447 2.622761093096143 0 0 0
769 1 16.942682332924786 9.33276191659347 0.8977731693500497 0 0 0
805 1 17.35193122804202 12.033250012651072 0.7153043047138934 0 0 0
2017 1 -0.4253996686372018 6.192245838928513 7.266148074202253 0 0 0
124 1 21.296841997628192 10.362679203429364 -0.5180038136636955 0 0 0
807 1 19.885727661747826 11.992432212888518 0.975556178428854 0 0 0
809 1 23.083315048071842 12.231571330205046 1.1952428722265 0 0 0
774 1 24.67673032889256 10.67071837452634 2.53471701204768 0 0 0
126 1 24.756206737591388 10.620536319599791 -0.5979905337561551 0 0 0
2107 1 25.95085473030162 11.862703375437263 6.650960168308564 0 0 0
650 1 0.9678754096409363 1.923928587863056 2.6227841327474675 0 0 0
1299 1 2.639630279285521 0.7067282826294741 4.215273009554608 0 0 0
1298 1 0.8520387502895661 2.0436884738200383 5.627735861176866 0 0 0
1297 1 -0.5533654490105188 0.48565500722291643 4.0383464180854425 0 0 0
1301 1 5.24146455314561 0.5661952184294023 4.083034151037627 0 0 0
1300 1 4.0486328249607055 1.9308972981249846 5.851224089924223 0 0 0
1303 1 8.426283396412028 0.2753958717221785 4.190511283931382 0 0 0
1302 1 6.851233601507431 1.6078058401434872 5.414524108859053 0 0 0
656 1 9.615413965894199 1.6875485736945173 2.2325482983543083 0 0 0
1305 1 10.979350163663838 0.5413651025646382 4.304046506579793 0 0 0
1304 1 9.434333191607763 1.9137216223027238 5.695463652911437 0 0 0
1306 1 12.708156118051878 2.0040916121725285 5.873625958618963 0 0 0
1307 1 13.659244414571104 0.5793237384808692 4.027746494495726 0 0 0
1308 1 15.732070999305254 2.1732894821063944 5.585230273239007 0 0 0
662 1 18.793880450577408 1.5269211319785247 2.4400012575591714 0 0 0
1309 1 17.05070433991456 0.5616745674307531 3.7481061736269234 0 0 0
1310 1 18.76647174321112 1.7797826226635864 5.256807508834835 0 0 0
664 1 21.68190404277951 1.9341247188802315 2.5750031270448512 0 0 0
1311 1 20.248533507286403 0.27371751986763926 4.192698386483305 0 0 0
1312 1 21.560043760415475 2.0734253269472234 5.456804199264765 0 0 0
1313 1 23.03446805726442 0.5846664117575275 4.024949259203701 0 0 0
1314 1 24.534749449269853 2.0664979132341 5.473188111737933 0 0 0
1334 1 1.1269442606412894 4.592269668787717 5.6229863085300735 0 0 0
1335 1 2.421166359746367 3.183435909797907 4.013211075589252 0 0 0
2753 1 23.527972006936384 12.017107410448126 10.051685872157643 0 0 0
1337 1 5.2970080593075375 3.3854632906069986 3.81613548954084 0 0 0
1336 1 4.06789672714933 4.567211883862607 5.951576205036612 0 0 0
1339 1 8.37719009176956 3.3495693911332456 3.9353419664866633 0 0 0
1338 1 6.76563183996023 4.599142803015176 5.410616264997159 0 0 0
1341 1 11.129761934594386 3.3679766798719992 4.446984861192526 0 0 0
1340 1 9.756517432234787 4.7824573733441005 5.880723710829135 0 0 0
1342 1 12.891584085905533 4.633375013270573 5.668479285348072 0 0 0
1343 1 14.282330933310142 3.357349683570483 4.168439549482057 0 0 0
1344 1 15.721351449089447 4.864024738627018 5.796942373732838 0 0 0
698 1 18.319026762863402 5.190547221505884 2.465917752442167 0 0 0
1345 1 17.395442486018442 3.477882051497131 4.017964035963058 0 0 0
1346 1 18.885698352528756 4.783897109815377 5.477167705971409 0 0 0
700 1 21.634590687262413 4.619038331961568 2.4467239128924283 0 0 0
1347 1 20.067349284406493 3.386523375052449 3.7192129245228838 0 0 0
1348 1 21.35486487047203 4.8659324769548755 5.499558055363501 0 0 0
1349 1 23.002221814714726 3.5485069193951437 4.090651840898795 0 0 0
1350 1 24.402970995925582 5.1022643980824 5.401899523070229 0 0 0
722 1 1.1832833332738226 7.631407396960153 2.6721276839192507 0 0 0
1371 1 2.4355438023287244 6.068367341994433 4.327640251309921 0 0 0
1370 1 0.8494583378774732 7.508595412633939 5.520609432129442 0 0 0
1407 1 2.5048227110340555 9.14976356012273 3.977960813269159 0 0 0
2751 1 20.243389788802833 11.920863317518174 10.262562049233415 0 0 0
724 1 3.742712597920886 7.504710062418749 2.817617548398692 0 0 0
1373 1 5.277448977137822 6.2201671219533194 4.248754583997538 0 0 0
1372 1 3.8222535727855336 7.70666038811687 5.626443993376488 0 0 0
1409 1 5.271857131272734 9.245551473712409 4.0355856651591155 0 0 0
1375 1 8.16628021977357 6.256036022850112 4.260213847374185 0 0 0
1374 1 6.729062308133067 7.907969443312345 5.659806821077651 0 0 0
1411 1 8.254234948762251 9.21369600866834 4.283208024880868 0 0 0
728 1 9.93217331831737 7.361888860666101 2.9739191180975237 0 0 0
1377 1 11.42266493794649 6.010608700066463 4.508695983446407 0 0 0
1376 1 9.789479873253079 7.589091269450135 5.629381067973551 0 0 0
1378 1 12.620402269607283 7.830554863562211 5.5142957872215295 0 0 0
1413 1 11.180534473596708 9.032975604691243 4.1204999873844805 0 0 0
732 1 15.640456705343794 7.444793679545066 2.706702249398585 0 0 0
1379 1 14.297298663098173 6.099455175302265 4.419551777165676 0 0 0
1380 1 15.711747248141393 7.791913271561478 5.639692680611322 0 0 0
1415 1 14.08208909076669 9.254600027568934 4.195646344253382 0 0 0
734 1 18.184092364188427 7.783012767448719 2.3429808145163826 0 0 0
1381 1 17.3818699816339 6.333589883360958 4.410281544116451 0 0 0
1382 1 18.869221132460435 8.003768897206177 5.58901591985591 0 0 0
736 1 21.714478763614522 7.696397857926442 2.3908920509120994 0 0 0
1383 1 20.003258615040313 6.421126923874883 3.8381088309859503 0 0 0
1384 1 21.577761031806947 7.903807149287031 5.405660633299037 0 0 0
1419 1 19.9547761917713 8.99249401656396 3.6740937794859665 0 0 0
1385 1 22.686912179611458 6.123023741531664 4.02064543696894 0 0 0
1386 1 24.272864662131408 7.49135119216221 5.208240157443492 0 0 0
1421 1 22.99546678182685 9.160592121209666 3.9431410420528277 0 0 0
2737 1 -0.23484476602553545 11.842229645705828 10.16257275320108 0 0 0
758 1 1.1194825759540326 10.842091368134374 2.7993123284760673 0 0 0
1443 1 2.531318761345821 12.386906363182298 4.455669487867121 0 0 0
1406 1 1.1089073809901544 10.797047374354289 5.698576426283574 0 0 0
685 1 -0.2569444577751814 3.283057093149974 1.0774402732601005 0 0 0
760 1 3.7998813103058957 10.87167344306294 2.8043690251473024 0 0 0
1445 1 5.599531367219256 12.032132049983419 4.070456397743669 0 0 0
762 1 6.978985312832769 10.742517328655577 2.486303844814118 0 0 0
1447 1 8.228859866594657 12.201147186429324 4.0584473237359076 0 0 0
764 1 9.8258648824017 10.492832947646137 2.779295065952186 0 0 0
1423 1 25.77187355150426 9.10301812991695 4.158518838269881 0 0 0
1412 1 9.75506565990864 10.8252076447228 5.680095455338462 0 0 0
766 1 12.534925459696826 10.62392492712755 2.6526647243519244 0 0 0
1414 1 12.64786052632749 10.64078117140811 5.589480846067391 0 0 0
1451 1 14.29210486283273 12.09324791181963 4.2533814165557065 0 0 0
1416 1 15.845294488178933 10.44300571666597 5.737861194555249 0 0 0
770 1 18.62223995908865 10.505969104484171 2.317937219265252 0 0 0
1417 1 17.246690117645628 8.96612646543375 4.181675849048688 0 0 0
1453 1 17.17698637890695 12.082405234035903 4.225708493570188 0 0 0
1418 1 18.781836721836203 10.519304092269822 5.649714101521245 0 0 0
772 1 21.49072525583917 10.741289940376612 2.5432908513782935 0 0 0
1455 1 19.976358465206044 12.289664104785205 4.189963903953617 0 0 0
1420 1 21.437994455431642 10.345354772434442 5.413625098059592 0 0 0
1457 1 22.887603996058125 11.868731576989488 4.073611381181703 0 0 0
1422 1 24.258769258699232 10.429731247443982 5.547513464153831 0 0 0
2716 1 21.925872695401157 10.711483294466897 11.447968416864954 0 0 0
1946 1 1.0868849680434334 1.7861360681510892 8.813347657158458 0 0 0
1947 1 2.208157574780467 0.6506042681994566 7.023515941947321 0 0 0
1945 1 -0.28564059348277754 0.3122507901535404 7.309341958920607 0 0 0
1949 1 5.7204633088988475 0.1122125692243432 7.161533237698064 0 0 0
1948 1 3.7175559061210963 1.856358871183739 9.029710868258748 0 0 0
1951 1 8.123995851349136 0.18926378725823167 7.337334447137072 0 0 0
1950 1 6.661620276472681 1.6308857881455348 9.171086912448947 0 0 0
1952 1 9.467388608900125 1.764043283446381 8.99610620036281 0 0 0
1953 1 11.020868010985978 0.4495531818823675 7.452857471051738 0 0 0
1954 1 12.679133658011336 1.982250506674661 8.624962620701961 0 0 0
1955 1 14.351935482340124 0.6172023967217737 7.028189614510333 0 0 0
1956 1 15.887344902738352 1.8592598337640642 8.780616675113055 0 0 0
1957 1 17.22233382133471 0.8244948430886287 7.088393597018029 0 0 0
1958 1 18.682768634010806 2.1304236863481214 8.817824686301645 0 0 0
1959 1 20.099211432273357 0.7974485382151375 7.186652607514062 0 0 0
1960 1 21.658495679323856 2.1631976096596985 8.658151358591224 0 0 0
1961 1 22.963157528654566 0.730803723900896 6.930156911002273 0 0 0
1962 1 24.740792428869103 1.818307135550309 8.382622987923952 0 0 0
1449 1 11.203055945983664 12.059037761983948 4.043702362229026 0 0 0
1982 1 1.0460292124165558 4.874540487905001 8.872672790606321 0 0 0
1983 1 2.5686182403840934 3.2453011449463793 7.150847976022057 0 0 0
1981 1 -0.34001350843924166 3.4712520687246613 7.564862070131369 0 0 0
1985 1 5.530504669555878 3.1963112366588198 7.283321534444338 0 0 0
1984 1 3.8414184298712426 4.830666504776998 8.686920121614005 0 0 0
1987 1 8.142628191844778 3.1734235649157783 7.318537342515397 0 0 0
1986 1 6.779282809797449 5.04361349462098 8.551716592541569 0 0 0
1988 1 9.397087592062402 5.071848863980279 8.82789686199153 0 0 0
1989 1 10.995232046167825 3.2192683981384675 7.450408940789396 0 0 0
1990 1 12.904020112996454 4.559353722655778 8.898235513897047 0 0 0
1991 1 14.42234028712974 3.2299014165069164 7.355397539937611 0 0 0
1992 1 15.784433097023737 4.844932833346321 8.513151172929124 0 0 0
1993 1 17.265646872969626 3.2679753664420352 7.128095819310818 0 0 0
1994 1 18.620108233301124 4.86992515000376 8.519880082905118 0 0 0
1995 1 19.959250427417725 3.3677266575921303 7.167653379593876 0 0 0
1996 1 21.650449480555686 4.913513444661079 8.385896745030383 0 0 0
2031 1 20.094930596056262 6.44741877708687 7.031475119276982 0 0 0
1997 1 23.190514177806254 3.278811551368259 7.057833423872735 0 0 0
1998 1 24.546035978350297 4.9054404320910345 8.356002457858782 0 0 0
2019 1 2.4887430348144535 6.094334827793266 6.973039017919944 0 0 0
2018 1 0.9441866250835249 7.877517171421063 8.528418281969703 0 0 0
2055 1 2.45298094419235 9.164848525314413 7.014865898561444 0 0 0
2053 1 -0.3950367570919745 9.062386578569454 6.9498772795252215 0 0 0
2021 1 5.385390629106141 6.363817313296293 6.9587509316307905 0 0 0
2020 1 3.814718349668154 7.651185622860547 8.452268117213148 0 0 0
2057 1 5.110039681156762 9.113983292682319 7.045818005811162 0 0 0
2023 1 8.137246363857663 6.250845335121132 6.975298260139513 0 0 0
2022 1 6.685698549031296 7.910424474726987 8.583647360123777 0 0 0
2059 1 8.304376350023071 9.223882407409908 7.052381471451654 0 0 0
2025 1 11.097856657253908 6.336292118251305 7.329021728257347 0 0 0
2024 1 9.607977294405819 7.886568240822934 8.54795248055296 0 0 0
2061 1 11.106782496082117 9.199262615619425 7.143616370626182 0 0 0
2026 1 12.816011115377163 7.719073200202557 8.593350544101481 0 0 0
2027 1 13.921242246566008 6.09880489336464 7.2465844476489565 0 0 0
2028 1 15.720923326905709 7.64524818491719 8.575962436778223 0 0 0
2063 1 14.044336028540368 9.238122393514631 6.9400382988945415 0 0 0
2029 1 17.36949882702169 6.3301614261120855 7.0018294734271596 0 0 0
2030 1 18.40980554619634 7.5244281032420695 9.053573985312282 0 0 0
2032 1 21.535549958417064 7.807969990280142 8.749704808500006 0 0 0
2067 1 19.942897158123646 9.155247799628002 7.530378369833841 0 0 0
2033 1 22.750089487864905 6.439927517691449 6.944632120843669 0 0 0
2034 1 24.712370866183733 7.720908775927663 8.65012497645868 0 0 0
2069 1 23.02547877225445 9.022792438793047 7.096536727664391 0 0 0
1333 1 -0.5355670879213628 3.524243710818239 3.879464857037143 0 0 0
2091 1 2.487501687738525 12.289728947119562 7.264307115975327 0 0 0
2054 1 1.0053425104551728 10.783462007545703 8.438022869494958 0 0 0
1408 1 3.8880339393600325 10.584019400888643 5.493033418383615 0 0 0
2093 1 5.515884261028743 12.074537082665001 7.252913470426215 0 0 0
2056 1 3.890514633944325 10.597439000024034 8.470531062897283 0 0 0
1410 1 6.799395089973025 10.596945945256188 5.774221858138348 0 0 0
2095 1 8.238985133157263 12.128829062965162 7.148619686231199 0 0 0
2058 1 6.7658819492295095 10.569286380435265 8.765336827615796 0 0 0
2097 1 11.354418865547707 11.966153801771785 7.103396483448709 0 0 0
2060 1 9.884103769410078 10.524518143782807 8.874650704352378 0 0 0
2062 1 12.7011134111076 10.580442215355273 8.73683836042351 0 0 0
2099 1 14.086954031588599 11.908931660801164 7.414913210427809 0 0 0
2064 1 15.807558845405822 10.666663376211321 8.833954457100369 0 0 0
2065 1 17.38902239415299 9.003374652573163 7.191708094592598 0 0 0
2101 1 17.1896124739712 11.911582104729018 7.183081623914473 0 0 0
2066 1 18.39318510685548 10.591011596944153 8.777735464346906 0 0 0
2103 1 20.0147071029225 11.985826305354344 7.101088368383821 0 0 0
2068 1 21.43563800265562 10.640962473251166 8.706228566589282 0 0 0
2105 1 22.939282193303168 12.006936956791394 6.8940879666545944 0 0 0
2070 1 24.561591149797867 10.442432587508131 8.42184555885631 0 0 0
2594 1 1.2441991488829711 1.8629477525607867 11.711316788000941 0 0 0
2595 1 2.4318616847035277 -0.003747433524056487 10.574994356770105 0 0 0
2596 1 3.811605398826207 1.7509960119414214 11.71805747958004 0 0 0
2597 1 5.078165069505229 0.305259396847421 10.371153117136512 0 0 0
2599 1 8.43792008925476 -0.025600894302308275 10.167280361750484 0 0 0
2598 1 6.915133110955257 1.35301760498524 11.635581889197772 0 0 0
2600 1 9.639851205043101 1.926505256391943 11.539081710004924 0 0 0
2601 1 11.21804950172009 0.4110528527565147 10.061025767218752 0 0 0
2602 1 12.80459805274351 1.8342703302667096 11.249720137611169 0 0 0
2603 1 13.943439012335661 0.37877066632783873 9.782326434402044 0 0 0
2604 1 15.603283894864738 1.8308736634566918 11.81119696524806 0 0 0
2605 1 17.38686704034195 0.39167496250553313 10.284066207213517 0 0 0
2606 1 18.963247614440093 1.9308216956477762 11.933470986141298 0 0 0
2607 1 20.142379705988347 0.4770564696974742 9.855112600983439 0 0 0
2608 1 21.88219317028481 2.0093942243115444 11.671649648436414 0 0 0
2609 1 23.253561887785764 0.49868557564783567 9.907576718080778 0 0 0
2610 1 24.524701586814732 1.8237236785511737 11.501920937798838 0 0 0
2630 1 1.1335976352220967 4.744727469001622 11.717130904677754 0 0 0
2631 1 2.59057117837562 3.5207241416858635 10.40750258254907 0 0 0
2701 1 -0.3859787251647771 9.181720766223503 10.344128209694157 0 0 0
2633 1 5.3113966774210875 3.486672047399347 10.126596621483266 0 0 0
2632 1 4.024863831419074 4.916156251404528 11.836682457013353 0 0 0
2635 1 7.872446375419539 3.4346288623672185 10.430144387486413 0 0 0
2634 1 6.6299202589708255 5.043637549966878 11.870135340965605 0 0 0
2636 1 9.524513775761193 4.769061580913251 11.646737956195352 0 0 0
2637 1 11.033929790123452 3.5066444840568085 10.037770425366443 0 0 0
2638 1 12.59779915801055 4.818011207058116 11.741913617885796 0 0 0
2639 1 14.363109324162531 3.410347626053504 10.34579395475867 0 0 0
2640 1 15.681392291489583 4.620272103067922 12.007148683237345 0 0 0
2641 1 17.236394179059634 3.468898050454114 10.412775358788073 0 0 0
2642 1 18.882346354095077 4.856196933940173 11.784026176981406 0 0 0
2643 1 20.17196926698891 3.3190232250176765 10.28503497393788 0 0 0
2644 1 21.871663796944855 4.710272685757855 11.27151812534268 0 0 0
2645 1 23.324692844708856 3.464281141316663 9.867063891593043 0 0 0
2646 1 24.812405943761235 4.738692073688928 11.769689884162387 0 0 0
2666 1 1.2035782093953689 7.690597777540443 11.861628247502468 0 0 0
2667 1 2.496954374333017 6.310864446588134 10.245251036896812 0 0 0
2703 1 2.371901308287118 9.06268930111461 10.076723973444444 0 0 0
2749 1 17.328912474609613 12.200571591197578 10.4561633048866 0 0 0
2669 1 5.348693076224928 6.30752626255365 10.201674271739227 0 0 0
2668 1 3.680528648121399 7.573879444288249 11.946497715495035 0 0 0
2705 1 5.093123100600298 8.999146710753662 10.23556256484343 0 0 0
2671 1 7.93345220839748 6.514165277412004 10.202520281621815 0 0 0
2670 1 6.898048771352379 7.8932455142163995 11.843973482669913 0 0 0
2707 1 8.232574686471152 9.166628983980798 10.123962194451005 0 0 0
2672 1 9.6717190856763 7.613485971349121 11.652230102504362 0 0 0
2673 1 11.245855330820559 6.0916436548121675 10.044149340098617 0 0 0
2674 1 12.487250641237157 7.5760249076828 11.667974986771753 0 0 0
2675 1 14.164853157310924 6.4796294064587805 10.236361812368163 0 0 0
2676 1 15.83694805840949 7.774653509235176 11.871844563164467 0 0 0
2713 1 17.15016922581853 9.179257283462837 10.301301990211973 0 0 0
2677 1 16.959920610863577 6.03430748652694 10.303972410626212 0 0 0
2678 1 18.914931145925706 7.7413824431982245 11.703023406420035 0 0 0
2715 1 20.35915251215346 9.252385415431645 10.37009777242856 0 0 0
2679 1 20.220275166672074 6.19087816448614 10.118490550014117 0 0 0
2680 1 21.79245890095834 7.873691965004877 11.672368139414026 0 0 0
2717 1 23.128739803591525 9.082439890151804 9.957397236926765 0 0 0
2681 1 23.091169790914638 6.406816622661501 9.993662493269671 0 0 0
2682 1 25.064434138475644 7.773226047231326 11.393434944142179 0 0 0
2702 1 0.9908896253439208 10.51138746741804 11.686375757028657 0 0 0
2739 1 2.6591991101038435 12.086288162728739 10.181586104054574 0 0 0
721 1 -0.41774183171961116 6.5208915933374385 1.1975885708162401 0 0 0
2704 1 3.829929818835625 10.45943484531869 11.750690480775082 0 0 0
2741 1 5.3414443855794325 12.035036702050517 10.080452917776544 0 0 0
2706 1 7.015923483020584 10.53748417462262 11.616645763529107 0 0 0
2743 1 8.387249919828028 12.18060041277094 10.112567006670623 0 0 0
2745 1 11.30559393193425 12.053444834045594 10.257957185272033 0 0 0
2710 1 12.49263317590834 10.575520083380104 11.718209082392477 0 0 0
2708 1 9.774737450356984 10.588191207915663 11.421801233180705 0 0 0
2709 1 11.161522856949919 8.934365419434641 10.137722456880374 0 0 0
2747 1 14.268961250028497 11.96405976886465 10.190083650999393 0 0 0
2711 1 14.312006684303467 9.139766977403736 10.043478125765454 0 0 0
2714 1 18.696167509394872 10.530590723419852 11.723857423169362 0 0 0
2712 1 15.553079043969007 10.506088107554115 11.652837594980692 0 0 0
2 1 1.0360469971209307 1.6344398039042312 -0.2491664177921108 0 0 0
52 1 21.09977658695785 4.783675393794607 -0.38621330971560547 0 0 0
84 1 15.266274249469442 7.610160485127114 -0.540232734032756 0 0 0
6 1 6.714760077051284 1.6634969489038682 -0.6523551559942007 0 0 0
3242 1 1.2056986196673416 1.5457695349055536 14.777888091777017 0 0 0
3243 1 2.3750658687623547 0.0671309441174539 13.062275088635184 0 0 0
3241 1 -0.3645257832683941 0.4055842449163265 13.273343868308169 0 0 0
3244 1 4.419264157636117 1.5398687788182759 14.700819972131345 0 0 0
3245 1 5.3798659900128625 0.02404849926905772 13.097231659053394 0 0 0
3246 1 7.122428363388317 1.3569476597611607 14.447895438369125 0 0 0
3247 1 8.332334564280634 -0.20396790303496215 12.779788921069331 0 0 0
3248 1 9.815687039255236 1.6438948612564817 14.323142676365654 0 0 0
3249 1 11.31013960224336 0.44744129571629876 12.64700502175422 0 0 0
3897 1 10.988014761147095 0.20529053611694204 16.225073743045908 0 0 0
3250 1 12.70936791234474 1.4014183115101488 14.423357503914556 0 0 0
3252 1 15.902162879612035 1.9022132822657873 14.568457946645148 0 0 0
3251 1 14.080318183899646 0.32317779936565416 12.87286257154725 0 0 0
3254 1 18.890619697144786 2.148018624348929 14.45851558616937 0 0 0
3901 1 17.568548434523503 0.5068063949026547 15.844079308861179 0 0 0
3253 1 17.013628670679957 0.13355864942026519 12.851848614758348 0 0 0
3256 1 21.888272293834095 2.1978865346577803 14.630335508114788 0 0 0
3255 1 20.713921428490146 0.5282003020887667 13.189497968314717 0 0 0
3903 1 20.328488024714048 0.5503201517121337 16.062122480076567 0 0 0
3258 1 24.891143746684204 2.085564813103155 14.434305850901435 0 0 0
3257 1 23.4213144320737 0.5184771603014324 13.106851607766451 0 0 0
3278 1 1.1638044828226954 4.706874083749258 14.966574529822296 0 0 0
3279 1 2.3417464173721267 3.2394957603110313 13.28707864597205 0 0 0
3927 1 2.8002840055600684 3.348418499538152 16.085781947354107 0 0 0
5296 1 3.547895548190862 10.830205298246803 23.23710996517526 0 0 0
3925 1 -0.6275252380375584 3.204203323041685 16.030195718853754 0 0 0
4645 1 -0.4983331503664537 8.94375389120127 18.895675350945847 0 0 0
3385 1 -0.4227140314820553 12.357041444013477 13.22962815554883 0 0 0
3280 1 4.479629470608006 4.222231255781542 14.669509844847553 0 0 0
3281 1 5.554753979958388 2.835106135927874 12.960455254096257 0 0 0
3317 1 5.48749054160409 6.516318053342996 13.667846428087952 0 0 0
3282 1 6.9350364605093855 4.6519043424368265 14.512274793164304 0 0 0
3283 1 8.047951635622447 3.1497515328920604 13.017321803529585 0 0 0
3284 1 9.624608053096216 4.747467852231482 14.335783258285575 0 0 0
3285 1 11.087957570382759 3.205019269470902 12.883755106027435 0 0 0
3286 1 12.738155242472768 4.587065038476561 14.550053492714706 0 0 0
3287 1 14.111288083160352 3.1801666428011717 13.302161100199113 0 0 0
3288 1 15.782547845358607 4.648583224802363 14.680053722370893 0 0 0
3289 1 17.244265700612917 3.3797455304081847 13.254314735802737 0 0 0
3290 1 18.680047728044116 5.011837641528987 14.428397479865628 0 0 0
3937 1 17.38973331051547 3.290879047854632 15.952909929732993 0 0 0
3292 1 22.04358834665715 5.124637470242733 14.451915571225763 0 0 0
3327 1 20.360980761384052 6.218952977838234 13.044134931577142 0 0 0
3291 1 20.587814754275644 3.5950411309136463 13.192911882728975 0 0 0
3293 1 23.153235588717944 3.5372480908007917 13.115420829299948 0 0 0
3294 1 24.771247323114107 4.852108719504194 14.65218776702044 0 0 0
3314 1 1.2383531625395894 7.362951012729567 14.913861993754008 0 0 0
3963 1 3.087575700693196 5.9589493981720345 16.234147144728176 0 0 0
3999 1 2.3148701972731507 9.361871035431056 15.983219804456112 0 0 0
3997 1 -0.44203773558875115 9.029539695452744 16.20928881494881 0 0 0
3315 1 2.483064350749186 6.023719250809258 13.34199870360789 0 0 0
3316 1 3.8678150538078455 7.927557553096236 14.888773872430836 0 0 0
3351 1 2.444738595644061 9.151939658342812 13.443670977644574 0 0 0
3353 1 5.285455471511311 9.230504277791912 13.45754802762412 0 0 0
3965 1 5.675885818986257 6.493615291004285 16.191597482338366 0 0 0
3318 1 7.3494278095795185 7.686887682356653 14.754808849171289 0 0 0
3319 1 8.27637754634095 6.258268592400706 13.09064070034588 0 0 0
3967 1 8.527160271087734 6.040264838870763 16.108857219305126 0 0 0
3321 1 11.302585633857303 6.163348175518359 13.348435913572189 0 0 0
3320 1 9.769417194581557 7.572011255291963 14.782466674604432 0 0 0
3322 1 12.580310423537387 7.547405158002478 14.771644369109424 0 0 0
3969 1 11.204242069286671 5.8536653828973595 16.137081031061385 0 0 0
3323 1 14.240268494801905 6.311441172609914 13.251102086616255 0 0 0
3359 1 14.115644791367153 8.964982192000347 13.110407994872142 0 0 0
3324 1 15.564620709699327 7.572215764868142 14.674224224358197 0 0 0
4007 1 14.070996392683686 9.071110728093343 16.076144137807134 0 0 0
3971 1 14.38819803653943 6.197753137159879 16.077080575952568 0 0 0
3361 1 17.48314534903549 8.983141996850085 13.324234820279301 0 0 0
3325 1 17.081097793302852 6.319324863455086 13.296815044447344 0 0 0
3326 1 18.867945199216823 7.558631871597671 14.547418516105056 0 0 0
3973 1 17.195481003497548 6.3129446760543315 16.016992691750705 0 0 0
4009 1 17.31526702464862 9.201629309598252 16.001477057622974 0 0 0
3363 1 20.444466699454658 9.181116924494264 13.11353843885633 0 0 0
3328 1 22.19148835268426 7.611947274545713 14.52688033409773 0 0 0
4011 1 20.2689681242412 9.166752793161661 15.87323774532917 0 0 0