LAMMPS data file via write_data, version 2 Aug 2023, timestep = 2500000, units = metal

11664 atoms
1 atom types

-0.7162605640126181 52.62892125014481 xlo xhi
-0.7161125828404984 52.629069231312315 ylo yhi
-0.7164314508809078 52.62875036327743 zlo zhi

Masses

1 55.847

Atoms # atomic

650 1 0.8581243912739609 1.7017192762502016 2.254674806328293 0 0 0
651 1 2.3372688147294327 0.4359981518886 0.7712263132703858 0 0 0
2 1 0.5252806025240779 1.6694876008255206 -0.4686970177437233 0 0 0
653 1 5.0789335015284935 0.4683815325768621 1.003534616733925 0 0 0
652 1 3.960678569216901 1.995578452768262 2.531380047550087 0 0 0
1441 1 -0.6202196993286903 12.290478399595363 3.5478183085796253 0 0 0
655 1 8.460954589474674 0.6053453798032178 1.0313010925878245 0 0 0
654 1 6.846552941700086 1.7570606996311513 2.4586273510200893 0 0 0
112 1 3.758716190536375 10.764972602620038 -0.6597046483267353 0 0 0
657 1 11.327114235109223 0.7584043787102228 0.8571061182153561 0 0 0
656 1 9.839324083872189 2.187125425445739 2.2100252794013455 0 0 0
658 1 12.697428393461628 2.2654377537980617 2.1871491873768676 0 0 0
659 1 14.398381231055078 0.6775308715634243 0.7930000221722788 0 0 0
660 1 15.751161746705755 1.8230053423148127 2.5332933161377302 0 0 0
76 1 3.914628933483983 7.767320469967068 -0.5055502420455297 0 0 0
116 1 9.559213977493293 10.695955418106784 -0.5471600375861464 0 0 0
661 1 17.254316778809933 0.8119181249690082 0.9702568584712206 0 0 0
662 1 18.7744470873208 2.1381579875526318 2.5492184225856565 0 0 0
50 1 18.49552540521859 5.103429254307624 -0.62891840595967 0 0 0
663 1 20.389590707010758 0.6365666434022741 0.9271563534780771 0 0 0
664 1 21.618549604410667 2.3759236305664944 2.5380220233084962 0 0 0
2053 1 -0.6218225131826128 9.517996268813091 6.778994252221952 0 0 0
665 1 23.11311004057987 0.6053994467032264 1.2520792735953432 0 0 0
666 1 24.509749942182687 2.0072255300788093 2.5708782999836735 0 0 0
4 1 3.7374943601177026 1.8482350802063552 -0.7020487753667385 0 0 0
110 1 0.7151436110455922 10.853633833538966 -0.5589343510973259 0 0 0
38 1 0.6463065229736311 4.746413929985448 -0.32185188575237095 0 0 0
687 1 2.0961238340826607 3.1237456091881985 0.6197449515934288 0 0 0
686 1 0.6586330568724961 4.702587271119237 2.3572812951605586 0 0 0
689 1 5.469921279435777 3.598502475242741 0.9353891622823001 0 0 0
688 1 3.8113285709525986 4.600926489313996 2.5905327304254997 0 0 0
40 1 3.946350442280112 4.546265497732886 -0.6484209164881902 0 0 0
691 1 8.29878064646634 3.535033094580272 0.837400116742949 0 0 0
690 1 6.851721712793818 5.010871589670223 2.29333298885375 0 0 0
42 1 6.830319111193944 4.92264775225626 -0.600946561750358 0 0 0
693 1 11.135700046609156 3.632460947807737 0.5682146087230493 0 0 0
692 1 9.692094708315025 4.794454095782153 2.36546913791116 0 0 0
2753 1 23.20761740111362 12.32231317518612 9.71936853699149 0 0 0
695 1 14.285733571783366 3.7426986110044753 0.7742700522238033 0 0 0
694 1 12.800046127083181 5.035794407587328 2.2466560934865374 0 0 0
696 1 15.73246219244733 5.141439347308675 2.5245211007243133 0 0 0
3325 1 16.991712895902822 6.179369107514828 12.53218680949762 0 0 0
697 1 17.190657744543582 3.8280581744423765 1.305834740725043 0 0 0
1369 1 -0.7127176032483362 6.362883579466852 3.909646109638336 0 0 0
698 1 18.761019425054297 5.223046365055218 2.683607727303415 0 0 0
699 1 19.97145193249757 3.8397287127979833 0.9492289869593242 0 0 0
700 1 21.722483422959254 4.914890064647976 2.297325042910881 0 0 0
52 1 21.77125096036498 4.887662362408572 -0.32491139961064724 0 0 0
701 1 23.178178477688412 3.5465603738991716 1.0680552420367029 0 0 0
702 1 24.79066325858733 5.03978010886572 2.278910390513433 0 0 0
54 1 25.06791395804966 4.944401877504291 -0.5006340103932274 0 0 0
723 1 2.387015168231991 6.321072891617985 1.1273643811364973 0 0 0
722 1 0.7860108739941261 7.673754183234083 2.4172937056772863 0 0 0
2701 1 -0.5737827143366181 9.042608265302873 9.864201019147986 0 0 0
725 1 4.9684756087799 6.276500705739406 1.2570686589250577 0 0 0
724 1 3.9610456267778957 8.165066333234707 2.4919872808605903 0 0 0
12 1 15.850057439349847 2.3460722766359083 -0.4838412380115925 0 0 0
727 1 8.561584094466411 6.283363845961731 0.8250595160230771 0 0 0
728 1 9.68659273125817 7.93091992217933 2.124746939716141 0 0 0
729 1 11.079515346429957 6.065642929321819 0.5752408750230296 0 0 0
765 1 11.378874796218618 9.349917299544835 1.1440811884131692 0 0 0
730 1 12.641558032521715 7.512201331429305 2.27193896848439 0 0 0
731 1 14.386326451509065 6.528508339326689 0.9435027871438753 0 0 0
732 1 15.552459936783336 8.104527317868037 2.508730440328525 0 0 0
2751 1 20.17478007471609 12.135602248235067 9.52914170053343 0 0 0
6 1 6.76650366128162 1.985726180553967 -0.17282370121037083 0 0 0
733 1 17.398038355116295 6.406804917488037 1.1117587440787653 0 0 0
734 1 18.676271490656937 7.939694389353292 2.6000532319778435 0 0 0
735 1 20.053131751314737 6.606505986464823 0.8688268687562168 0 0 0
771 1 20.21748406159826 9.417852969483894 1.1444171854881062 0 0 0
737 1 23.36018636361118 6.391320224280511 0.7907564650556371 0 0 0
90 1 24.862030556877897 8.065344277532274 -0.611582935765437 0 0 0
759 1 2.105170955141289 9.225434858660511 0.9087188506958761 0 0 0
795 1 2.376979405003396 12.085919725372642 0.8984547704010173 0 0 0
761 1 5.450008966599998 9.347944590620939 0.74659140396766 0 0 0
797 1 5.300695105897059 12.34997422425926 1.0300520253865053 0 0 0
760 1 4.011257789081418 10.623321538612872 2.2879355270325443 0 0 0
48 1 16.056500386270017 5.04353881832694 -0.6046632100766458 0 0 0
18 1 24.64491088372593 2.0957755896106787 -0.48541097188770804 0 0 0
763 1 8.159422454986228 9.04425342208657 0.6949253950472767 0 0 0
8 1 9.70465179235745 2.1093309074259947 -0.585657693945551 0 0 0
762 1 6.911687355851724 10.749924084051228 2.115151069597356 0 0 0
799 1 8.049272691310495 12.561653029505733 1.1111618254007722 0 0 0
764 1 9.595087695485965 10.632402856497412 1.9601947081140154 0 0 0
801 1 11.261875612491266 12.175697158121817 1.0241163190437519 0 0 0
2708 1 9.596251795421281 10.502400003541895 11.16293544229321 0 0 0
2716 1 21.6671247476988 10.984631672681605 11.08642601902032 0 0 0
767 1 14.1763658595339 9.309570307094553 0.9569322717460584 0 0 0
803 1 14.418683228642577 12.361552576653963 0.9631724113658304 0 0 0
766 1 13.008727518338603 11.037145614505883 2.5421102259711703 0 0 0
769 1 17.3305789565915 9.452976270247417 1.1707920478240201 0 0 0
80 1 9.90244744523864 8.01763563617165 -0.4882638388658099 0 0 0
122 1 18.601703478325355 10.942218953072278 -0.323067546067308 0 0 0
768 1 15.726866949923316 10.620712336057624 2.6217916392714407 0 0 0
770 1 18.76260731213449 10.961619049033631 2.413906243717249 0 0 0
630 1 24.528941329939713 -0.6670967954350217 -0.1838117018758031 0 1 0
805 1 16.871339812478563 12.091748326462353 1.1139971691770227 0 0 0
126 1 24.747673646335908 10.82321340318617 -0.45063795000636986 0 0 0
773 1 23.08853509411835 9.437725439318365 0.9924657290420826 0 0 0
2017 1 -0.43374685490485143 6.112583923993671 6.773391838559192 0 0 0
14 1 18.697692584526816 2.3192760741845677 -0.2642089542615118 0 0 0
1298 1 0.6996907439512445 1.9531776236095526 5.444618033501107 0 0 0
1299 1 1.98514569685164 0.35956247606697134 3.9782662568782117 0 0 0
1301 1 5.566086259626257 0.31903112621301766 4.175830997784184 0 0 0
1300 1 3.9101600802583567 1.8310165875699451 5.316048024314894 0 0 0
1303 1 8.402535814267505 0.5763175755853305 3.8457043615037243 0 0 0
1302 1 6.953805949259519 1.7649385032631368 5.586075731650951 0 0 0
1304 1 9.950603196262286 1.8589108666802794 5.233157671236472 0 0 0
1305 1 11.396031562470831 0.502342816742378 3.6822840037945266 0 0 0
1306 1 12.633535191222585 2.0540983745842016 5.069361758681332 0 0 0
1307 1 14.07867022546911 0.3495160633448704 3.9763872768360917 0 0 0
1308 1 15.624543856084 2.036515652981587 5.167453283115782 0 0 0
1309 1 17.310034092878745 0.6171602714450986 3.963258316819931 0 0 0
1310 1 18.55449675626004 2.178275360476529 5.414409421560495 0 0 0
1311 1 20.140033300511426 0.5530631330099929 3.927227200032994 0 0 0
1312 1 21.641132941454 2.0560350231856943 5.2175367239343515 0 0 0
1313 1 22.921985603490835 0.5357840544961352 3.870543827419306 0 0 0
1314 1 24.75121714549464 2.0087616236931196 5.213076468218633 0 0 0
2718 1 24.774634831613167 10.963026133498454 11.135130953796894 0 0 0
1334 1 0.9893523484099351 4.765252482482056 5.19066850125509 0 0 0
1335 1 2.2772423080978044 3.234285896381649 3.7362249793107107 0 0 0
1337 1 5.590117754962376 3.2206886658992273 4.060995869417606 0 0 0
1336 1 3.8739618736345607 4.487089957314522 5.089720579869376 0 0 0
1339 1 8.291401539124681 3.2851319513454733 3.827348350266228 0 0 0
1338 1 6.911372398333996 4.8470037351110165 5.446607283586715 0 0 0
1341 1 11.242144909006505 3.4501628712349737 3.7350162956428274 0 0 0
1340 1 9.742165948986862 4.831426649946848 5.0768108961723 0 0 0
1342 1 12.696569437849101 5.049666706492571 5.2773022276134265 0 0 0
1343 1 14.169483806843417 3.626863701681091 3.8327950574733443 0 0 0
1344 1 15.720230586007897 4.940701511733991 5.272143233938649 0 0 0
1345 1 17.06486244523359 3.53163358042113 3.882633945217333 0 0 0
1346 1 18.77323380765308 5.294769150503889 5.2860608401957005 0 0 0
1347 1 20.23472804836686 3.592058754251915 4.046282714394815 0 0 0
1348 1 21.90023258908907 4.9506886809829975 5.422531004708676 0 0 0
1349 1 23.311494537751503 3.7131995022075444 3.8492362990155753 0 0 0
1350 1 24.993423420620246 5.146488329042167 5.126644351197362 0 0 0
1371 1 2.4710136936735565 6.515330796572389 3.659913348398593 0 0 0
1370 1 0.5143827909919001 7.954672934211583 5.318854285534897 0 0 0
88 1 21.570274112477644 8.069436455061062 -0.5346451475350851 0 0 0
2713 1 16.91522063856941 9.523586976953942 10.000208129254416 0 0 0
1373 1 5.2848183782237435 6.311129229149817 3.699233673733528 0 0 0
1372 1 3.695774572675367 8.134560851747215 5.341697161023701 0 0 0
726 1 6.963671511183193 7.814372265323305 2.3893803562541422 0 0 0
1375 1 8.377946118099045 6.363574510828333 3.807600262706604 0 0 0
1374 1 6.950733694178628 7.7656069905038585 5.1897758356567945 0 0 0
1376 1 9.742448596716713 7.877264272357744 5.303800223921396 0 0 0
1377 1 11.335964711733817 6.391502658548563 3.8616132767944435 0 0 0
1413 1 11.418512802187776 9.36910432680336 3.5069152105734887 0 0 0
1378 1 12.760303462355655 7.850157171460454 5.225160669156124 0 0 0
1379 1 14.24525793434089 6.512165581796591 3.8396501016863853 0 0 0
1380 1 15.57898351459199 7.972737192779608 5.340104312378872 0 0 0
1381 1 17.203958057243877 6.594488048364412 4.003981110974066 0 0 0
1382 1 18.78526124794744 7.7295885665581725 5.545296070631817 0 0 0
736 1 21.93131626992856 7.696388198321202 2.2823279980084967 0 0 0
1383 1 20.35479693727004 6.5071148236752885 3.9989764445413956 0 0 0
1384 1 21.880466983143233 8.041918259248027 5.2040416803321765 0 0 0
738 1 24.710131564048844 8.082590915814759 2.251787151851961 0 0 0
1385 1 23.413727780047015 6.411303110539555 3.736589290917941 0 0 0
1386 1 24.787706606646235 8.064086249847161 5.013762919982156 0 0 0
1421 1 23.215874449626813 9.628452042871825 3.3964121247428594 0 0 0
758 1 0.8958685631930416 10.87729257684957 2.2858309095134723 0 0 0
1407 1 2.136561125487997 9.080829069087986 3.8644608602483563 0 0 0
1406 1 0.8596452978482048 10.806004811083303 5.274713282973489 0 0 0
1443 1 2.523048155847257 12.042510434908372 4.017653460417439 0 0 0
1409 1 5.386889318446099 9.506149399556174 3.997872409066768 0 0 0
1445 1 5.279454479480762 12.138591056827773 3.805717703874387 0 0 0
1408 1 3.8050436530634455 10.80511646742413 5.602062613279299 0 0 0
1411 1 8.523044825409094 9.462614262180066 3.9761278639188253 0 0 0
1447 1 8.21926401351726 12.118830269009512 3.827681414139647 0 0 0
1410 1 6.767247407808041 10.92870827780694 5.4701847413376505 0 0 0
1449 1 11.025159870610105 12.20625516644356 3.532363114594826 0 0 0
1412 1 10.050236556746183 10.798139749338786 5.441976018137025 0 0 0
1414 1 12.401652902884628 11.040693455061355 5.148594824535805 0 0 0
1415 1 14.117866204908099 9.360275360203838 3.838057984583261 0 0 0
1451 1 14.447940259944911 12.542226638640795 3.669306282780477 0 0 0
1417 1 17.547102406048648 9.440210209651308 4.051618930962303 0 0 0
1416 1 15.38499161310553 10.888927959599313 5.258893570169995 0 0 0
1418 1 19.008581187508646 10.999009755533594 5.2706172240863305 0 0 0
1453 1 17.121538862249743 12.118168159481591 3.937892401060453 0 0 0
2574 1 24.690937054424822 -0.6901798495507876 8.18325055226118 0 1 0
772 1 21.4027784153248 11.150910947761057 2.2739049906354194 0 0 0
1419 1 20.494544630823107 9.193269753505355 3.710708274155249 0 0 0
1420 1 21.649982021255095 10.834874850360318 5.2378923031522024 0 0 0
774 1 25.14062066549807 10.989082502767351 2.2984508661113985 0 0 0
1422 1 24.757481843672068 10.963166518874207 4.918498855984666 0 0 0
1457 1 23.16333108949115 12.166858488971934 3.693140104778408 0 0 0
86 1 18.765287918748793 8.119235950757636 -0.47849720591142647 0 0 0
1946 1 0.819120898866698 1.4914774120393122 8.585730666809145 0 0 0
1947 1 2.102361591302897 0.17386621968897775 6.703509321212084 0 0 0
1949 1 5.26978910348538 0.49460346357675333 6.780122653127546 0 0 0
1948 1 3.5801962812028787 1.752866290948151 8.170953364954283 0 0 0
1951 1 8.590036629133689 0.4628517672027539 6.918092159058747 0 0 0
1950 1 6.71423095648921 1.6484474729586869 8.328201519996409 0 0 0
1952 1 9.53436678814755 2.055327233160321 8.729462718818754 0 0 0
1953 1 11.127683669492383 0.611808614647634 6.906550560986274 0 0 0
1954 1 12.784265610125209 1.9836007171159302 8.302173849088993 0 0 0
1955 1 14.450445639644286 0.6539164398530368 7.043305277543531 0 0 0
1956 1 15.62532804509766 2.167611983736053 8.470421813013399 0 0 0
1957 1 17.068411950826647 0.888944578331567 6.8451727817842825 0 0 0
1958 1 18.701789409920462 2.10077986832598 8.217927599111116 0 0 0
1959 1 20.212432909838125 0.5230430515592364 6.523596563217906 0 0 0
1960 1 21.769170004306147 2.2701337784480375 7.997376493924227 0 0 0
1961 1 23.08566204377104 0.6141798103497489 6.620772068723351 0 0 0
1962 1 24.826593260944463 2.028153971535468 8.098510276745023 0 0 0
114 1 6.854062141367714 10.896492766347066 -0.441649314237039 0 0 0
1982 1 1.201992552723229 4.99434214739708 8.154172707237304 0 0 0
1983 1 2.437223076316857 3.1715592063589235 6.744114229300202 0 0 0
1985 1 5.3631730368521815 3.12816016421794 6.82941780228755 0 0 0
1984 1 3.7210670651204065 5.0772775216610855 7.905658300769856 0 0 0
1987 1 8.46243476760031 3.263627366956002 6.8820723092244735 0 0 0
1986 1 6.533482439478754 4.882762971374153 8.129951674252625 0 0 0
1988 1 9.57336142603458 4.8604969703470475 8.448586510201563 0 0 0
1989 1 10.997172848117712 3.200335582028796 7.0124331499171415 0 0 0
1990 1 12.58078739580965 5.047317360966786 8.254152854534986 0 0 0
1991 1 13.97915339967722 3.5187919836516883 6.677960890250759 0 0 0
1992 1 15.547694921592125 4.872966051552904 8.28361528153406 0 0 0
1993 1 17.359184804361078 3.7921798958439403 6.766306114526973 0 0 0
1994 1 18.849954505854836 5.388638935538857 8.302317799173327 0 0 0
1995 1 20.212496780347323 3.863556121646658 6.866866499429313 0 0 0
1996 1 21.74844689947078 5.142766810331081 8.251037694534359 0 0 0
1997 1 23.72500509362491 3.5727535107438495 6.591869881858075 0 0 0
1998 1 24.959847479103143 4.9543844861431605 8.380801088044072 0 0 0
74 1 0.8227061006938174 7.569948825970753 -0.33079437147716223 0 0 0
78 1 6.680316375147091 7.4114711819331625 -0.14223531403720313 0 0 0
2019 1 2.3014477292407443 6.425890114790617 6.431144431849529 0 0 0
2018 1 0.83969896841033 7.641480187937331 8.084675426625003 0 0 0
2021 1 5.120084561635785 6.3714925728734855 6.441147858100929 0 0 0
2020 1 3.8025219905069783 7.775636780485545 7.921970178873337 0 0 0
2057 1 5.543949735011978 9.264198933181147 6.930997595019817 0 0 0
2023 1 8.537526624938717 6.410839009565169 6.9600723645874005 0 0 0
2022 1 6.8782738524126605 7.55884839694858 8.194650282468896 0 0 0
2059 1 8.153724611324613 9.445683168825774 6.773347844891681 0 0 0
2024 1 9.917536841073884 7.893408919049984 8.28455350680403 0 0 0
2025 1 11.30750979721242 6.3934006940141295 6.628792873462232 0 0 0
2061 1 11.243709835337759 9.227962235985427 6.853039815647586 0 0 0
2026 1 12.68558049104976 7.797290987209445 8.3399263614847 0 0 0
2027 1 14.176345121299798 6.170291072351485 6.733948864804502 0 0 0
2028 1 15.590098375917272 7.8748567808486865 8.385794730243695 0 0 0
2029 1 16.884289784364732 6.425069892683556 6.983388302949685 0 0 0
2030 1 18.78710986711424 8.110088985395876 8.271501651927283 0 0 0
2065 1 17.220345525209996 9.32596863795242 6.755483595432698 0 0 0
2031 1 20.474869668057632 6.581911275689017 6.951670833418617 0 0 0
2032 1 21.77534019846978 8.298860358191266 8.541103808758018 0 0 0
2033 1 23.2469029925847 6.594642933676291 6.689039904778405 0 0 0
2034 1 24.91611343768953 8.130078223759654 8.142693714798948 0 0 0
2103 1 20.61640427101055 12.545744396209297 6.836447304307132 0 0 0
2055 1 2.0632334955879847 9.241163670240885 6.742397589025212 0 0 0
2091 1 2.2868249107015344 12.17511018789157 6.951184365407196 0 0 0
2054 1 0.8971083779110489 10.724538440620213 8.529638413561688 0 0 0
2093 1 5.249306786826239 12.127971884852515 7.118489547877971 0 0 0
2056 1 3.7449507811612754 10.56961754005922 8.183097437956592 0 0 0
2095 1 8.447735007527175 11.936116980718845 7.207195825913165 0 0 0
2058 1 7.006878793666889 10.71204367839228 8.534254911330912 0 0 0
2097 1 11.35492318623425 12.306267149295202 6.841139309036367 0 0 0
2060 1 10.150136762856397 10.590051531827381 8.627605631940584 0 0 0
2063 1 14.038754298505314 9.37116306529384 7.0192351317712545 0 0 0
2062 1 12.646252477109819 10.8653314354182 8.359213936217527 0 0 0
2099 1 14.228952902522154 12.438705143030818 6.630338639501672 0 0 0
2064 1 15.733046289507222 10.648157027733896 8.31486726807805 0 0 0
2066 1 18.701710435430677 11.093515819555982 8.027962229151457 0 0 0
2101 1 17.190067196610773 11.937226891036945 6.496429582833522 0 0 0
1981 1 -0.4996694371646404 3.570754398859373 6.735521220516137 0 0 0
2067 1 20.276409583328828 9.325848971643609 6.751814589502801 0 0 0
2068 1 21.84957565021332 10.804074693062832 8.13313465975415 0 0 0
2105 1 23.26748568333417 12.097835764534304 6.658094277393393 0 0 0
2069 1 23.292876937183372 9.377369570681262 6.727377390608329 0 0 0
2070 1 25.012218763363936 10.7248491113088 8.037746119220667 0 0 0
1945 1 -0.6206276732162772 0.6805406235143012 6.880034664925539 0 0 0
2594 1 0.8674260505366009 1.3751587867110358 11.316931230117115 0 0 0
2595 1 2.392744917573689 0.13524031176092588 9.827516561261657 0 0 0
2596 1 4.048607737315889 2.128228510674264 11.257184968866428 0 0 0
2597 1 5.158748192234149 0.32453591384270153 9.76474990055978 0 0 0
2599 1 8.188549152389783 0.24081205488908763 10.038111790937322 0 0 0
2598 1 6.516415849194335 1.9470045876847166 11.007030959139882 0 0 0
2600 1 9.632720100897332 2.202574580784544 11.197835035941294 0 0 0
2601 1 11.316908016351775 0.5956646196510691 9.926495045730777 0 0 0
3253 1 17.108937881496903 0.9878525475584068 12.373386828915168 0 0 0
2602 1 12.777497392550222 2.0553351109938345 11.429273607631274 0 0 0
2603 1 14.209206963381128 0.6111187141399159 9.724051180521263 0 0 0
2604 1 15.647699199975623 2.313318343329683 11.104441032096243 0 0 0
120 1 16.07171091457676 10.506283701897862 -0.5791697839035799 0 0 0
3291 1 20.475035573825235 3.6513487810436294 12.611788872532053 0 0 0
2605 1 16.965510355369446 0.7100516765590985 9.710659558874559 0 0 0
2606 1 19.01784868275666 2.0583429744101105 11.308538249087949 0 0 0
2607 1 20.368911928953178 0.6813404739653854 9.526568119344924 0 0 0
2608 1 21.643285546311553 1.9289673824659448 11.349545643590286 0 0 0
2609 1 22.912972712842617 0.4661559835610276 9.500199628810744 0 0 0
2610 1 24.882717820976357 2.0517489839652274 11.202496785417573 0 0 0
2629 1 -0.3692554335905364 3.3638503181475903 9.900876967254677 0 0 0
2630 1 1.0323089780589718 5.213583280150267 11.365672126246432 0 0 0
2631 1 2.568461606886641 3.520081455824708 9.665841189923432 0 0 0
2633 1 5.198511741433318 3.2342680131429824 9.357789107085072 0 0 0
2632 1 4.045094617543907 4.9236807354656245 11.231932495820011 0 0 0
2635 1 7.7849914547425385 3.3740912778145074 9.614364015103313 0 0 0
2634 1 6.651142579906764 4.812122444699692 11.313997674476719 0 0 0
2636 1 9.697736682109625 4.616526132015703 11.035030563055978 0 0 0
2637 1 11.343587091692749 3.302803032868596 9.808076695141056 0 0 0
2638 1 12.547349166397305 4.767156149111447 11.341447805811049 0 0 0
2639 1 13.902715498124119 3.4465159622610253 9.876187007052122 0 0 0
2640 1 15.498551607267835 4.870680046555026 11.08777633773708 0 0 0
2641 1 17.465695429505566 3.6531720974605815 9.689582295245467 0 0 0
2642 1 18.877070506780363 5.1415353602938145 10.929167633841377 0 0 0
2710 1 12.70512988529767 11.0566320269066 11.028056087548865 0 0 0
2643 1 20.55033261116451 3.4733741272184817 9.59505024256229 0 0 0
2644 1 21.985538861609125 5.080589659639415 11.006200949489623 0 0 0
2749 1 17.25652368606787 12.212353737966044 9.790643630619416 0 0 0
2645 1 23.31105599700707 3.495011969186348 9.382609180613343 0 0 0
2646 1 24.678864782212308 4.956694017919133 11.232607790881742 0 0 0
2712 1 15.743312555966778 10.866361634524653 11.529104044660679 0 0 0
2666 1 1.0090103345546464 7.617605081918818 11.627548548621956 0 0 0
2667 1 2.624720644112917 6.406006760990042 9.597384513164291 0 0 0
2703 1 2.4717719696408174 8.8673110207872 9.497753965742493 0 0 0
2669 1 5.312983222346306 6.370565946069302 9.653018610822253 0 0 0
2668 1 3.9739056504958175 7.781481020453565 11.281145927044037 0 0 0
2705 1 5.407871144452632 9.309240409359004 9.655160288047458 0 0 0
2707 1 8.145761184012947 9.017662374570614 9.654213373318758 0 0 0
2671 1 8.110023400974288 6.182869894301803 10.091346630273323 0 0 0
2670 1 6.8734796053602105 7.881799144484528 11.376609557307784 0 0 0
2709 1 11.45934147892111 9.332223318264594 10.081555317777317 0 0 0
2672 1 9.690411328270963 8.133089767747112 11.31596107631389 0 0 0
2673 1 11.234485663271776 6.3647768944236125 9.766259729252187 0 0 0
2674 1 12.57965308860835 7.577599997029791 11.433577848164472 0 0 0
2675 1 14.093121443296713 6.365486497337118 9.704261952063957 0 0 0
2714 1 18.842184921739758 11.105053425134694 11.340769596938523 0 0 0
2676 1 15.544482852375697 7.835332350312941 11.23655096224764 0 0 0
2677 1 17.13045745462875 6.473895590529382 9.655898794295787 0 0 0
2678 1 18.618717957334137 7.834149791132813 11.241398716211116 0 0 0
2680 1 21.73025868086165 8.191182809529883 11.405485216847019 0 0 0
2679 1 20.363744544799545 6.820319204056556 9.857546648368487 0 0 0
2717 1 23.619819134294346 9.524423405320203 9.634135398540687 0 0 0
2681 1 23.56934109654539 6.577548601770102 9.762261229594369 0 0 0
2682 1 24.667891244278202 8.18772844034038 11.626087524904284 0 0 0
2739 1 2.3048549421153544 12.183715729356717 9.907591223383982 0 0 0
2711 1 14.125017446655944 9.263222663486435 9.97524458199037 0 0 0
2743 1 8.366701092828784 12.327679885362171 9.745467166843811 0 0 0
2702 1 0.9868941728430025 10.620677511064866 11.197306023170045 0 0 0
2747 1 14.191137154206167 12.281203497201783 9.613150622436871 0 0 0
2741 1 5.145399144802165 12.108743587786444 9.838365149618035 0 0 0
2704 1 3.770258540871799 10.552428241982481 11.166345420223852 0 0 0
2715 1 19.995453483285587 9.558330460763495 9.836011284824004 0 0 0
2706 1 6.640197960851662 10.71214288372911 11.286960620822864 0 0 0
82 1 12.539306923653294 7.648225185359848 -0.5971180708563263 0 0 0
809 1 23.061336581202003 12.285648057081577 0.847408650967961 0 0 0
2665 1 -0.42489344405238083 6.359206459357319 9.776894900836373 0 0 0
622 1 12.697447651780463 -0.6627283487472937 -0.5225205077883046 0 1 0
3321 1 10.679419347504595 6.160194390224392 12.594229332403172 0 0 0
118 1 12.58011206783854 10.917070580431345 -0.5103170291907747 0 0 0
3391 1 8.406788559925259 12.159199503394273 12.503200991709909 0 0 0
3393 1 11.254536660925861 12.29717571971045 12.434646046700493 0 0 0
3365 1 23.13048042006589 9.70199413593848 12.51236127403651 0 0 0
3401 1 23.44457758634277 12.466413547577181 12.532296985964152 0 0 0
16 1 21.817283624167928 2.077225979786602 -0.4580245295198917 0 0 0
84 1 15.935467781664897 8.088104222115776 -0.6097911242312166 0 0 0
10 1 12.781027001760728 2.165876851451749 -0.5796460647615009 0 0 0
2745 1 11.254335492358058 12.611086961005011 9.603534530529052 0 0 0
3243 1 2.6042479280570885 0.33551228085008367 12.565492950132079 0 0 0
3327 1 20.566260660455704 6.41303613392896 12.57208564627039 0 0 0
3242 1 0.9653730354920578 1.6902978326155291 14.205528702412186 0 0 0
5293 1 -0.5437884869079227 9.13461617994791 21.599217727572512 0 0 0
3891 1 2.518423116492461 0.4858936698776304 15.863800526375382 0 0 0
3889 1 -0.44097785265107614 0.2665761251928951 15.836156659965415 0 0 0
3329 1 23.142167082035783 6.327026611177254 12.807932900445723 0 0 0
3244 1 3.7531360270709007 1.7258025591782045 14.134305834302081 0 0 0
4645 1 -0.5934777148430402 8.933408940016212 18.684807192173263 0 0 0
3893 1 5.270907209696864 0.5176440550827379 15.72090046852589 0 0 0
3246 1 6.812687056163213 1.8396432248381318 14.261081522484123 0 0 0
3895 1 8.449977815575892 0.09061370932203838 15.771592097149995 0 0 0
3279 1 2.1405250305475216 3.2967685257256916 12.760058265298948 0 0 0
3248 1 9.24686076482554 1.7116206767477466 14.033008880943505 0 0 0
3250 1 12.708632390490605 2.0360710622288325 14.222209034307069 0 0 0
3899 1 14.395256390657643 0.7651856667211394 15.533639992563767 0 0 0
3252 1 15.917161563627772 2.1923599182470324 14.183313176786443 0 0 0
3254 1 18.889725102056712 2.2419102266629247 14.111823997165223 0 0 0
3256 1 21.51877208303903 1.9984278086775902 14.281482592517172 0 0 0
3903 1 20.186483196539363 0.44835715439886026 15.649423890613473 0 0 0
3363 1 20.030803006555757 9.324108778107592 12.641132810552394 0 0 0
3258 1 24.729723984411876 2.1302300794800546 14.338815500859837 0 0 0
3862 1 12.733076979056776 -0.6804507815013793 14.156310999839436 0 1 0
3278 1 1.1857551957694281 4.858393814418174 14.275075500021908 0 0 0
5310 1 24.846426891875364 10.752873762007978 23.252629733038884 0 0 0
3280 1 3.6818039686887785 4.620531433806199 14.214484227524117 0 0 0
3349 1 -0.4467464740300339 9.272821612127988 12.942826511138737 0 0 0
3281 1 5.459360349132042 3.332788036981798 12.840386946854684 0 0 0
3929 1 5.267049170651625 3.0740704304316964 15.608187211093629 0 0 0
3282 1 6.805903315703773 4.816129449486737 14.214707291941025 0 0 0
3931 1 8.435244181144846 3.2460934621168764 15.85511193229387 0 0 0
3251 1 14.38200008022304 0.7879580663237715 12.744731157873959 0 0 0
3284 1 9.61114266059176 4.761547551934192 14.278735004383678 0 0 0
3933 1 10.964687929408687 3.223004991210792 15.57319143749304 0 0 0
3359 1 14.18501710948497 9.216933574382669 12.766016712603784 0 0 0
3286 1 12.551784455086437 4.802323713449522 14.552250350437767 0 0 0
3287 1 14.34232278863443 3.5934340855651703 12.866826624781032 0 0 0
3288 1 15.844424203052522 4.753672482539468 14.433179009078085 0 0 0
3935 1 14.26233727898829 3.4784018296112 15.759823005514253 0 0 0
3290 1 18.88071010860391 4.949739143553496 14.274266185398893 0 0 0
3937 1 17.540296218339147 3.414152006682624 15.915764060454617 0 0 0
3292 1 21.68347782629076 5.099817027753473 14.393626515345714 0 0 0
3939 1 20.262795217547787 3.582505168017023 15.713592408069573 0 0 0
3294 1 24.51118270868558 4.8391629313669595 14.312766313261168 0 0 0
3941 1 23.00909374986628 3.339062987678467 15.680166027996474 0 0 0
3293 1 23.010315798382656 3.4728480728945588 12.763074647183881 0 0 0
3315 1 2.614444580606474 6.50438135765926 13.052462022132664 0 0 0
3285 1 11.12945964287941 3.4117839638844316 12.746351503904204 0 0 0
3314 1 1.003947352906618 7.7799690358953 14.669791738171744 0 0 0
3963 1 2.7288288616943266 6.2731636558701025 15.731991363530554 0 0 0
4685 1 5.346854091561595 12.240545669158582 18.866077344428362 0 0 0
5941 1 -0.673658213466382 9.050692850276898 24.370580404421794 0 0 0
3316 1 3.886365101523075 7.965995387619284 14.377443108292884 0 0 0
3965 1 5.444347435476879 6.532436994592177 15.407628277812979 0 0 0
3353 1 5.235917649451007 9.21637452966601 12.706553478911404 0 0 0
3318 1 6.961578806309215 7.9761590503234725 14.258358175356285 0 0 0
3967 1 8.302816986715186 6.486742987051783 15.72589047437545 0 0 0
5333 1 5.081663769534419 12.214653940984654 21.723276751263178 0 0 0
3320 1 9.878227430045184 7.794504242314941 14.268233705378693 0 0 0
3969 1 11.487520012981015 6.4961248021346 15.738587158338834 0 0 0
5162 1 18.746149042406934 -0.49468292892245525 20.289608354601036 0 1 0
4005 1 11.27294794738089 9.23915920598244 15.82472797258783 0 0 0
3322 1 12.670484266973327 7.706705126547757 14.108302600129823 0 0 0
3324 1 15.7139792251973 7.804706794328247 13.928338583263955 0 0 0
3971 1 14.287229074900216 6.527074846436316 15.844145488498341 0 0 0
3326 1 18.784337752212565 7.995145171650011 14.405603420133573 0 0 0
3973 1 17.14643010220725 6.325643093271051 15.697112077286658 0 0 0
4009 1 17.098869483541833 9.444898369466245 15.70276574471195 0 0 0
4049 1 23.142067576978416 12.215981839905337 15.731871493488484 0 0 0
3323 1 14.342116043466465 6.241146673379281 12.75130863043733 0 0 0
3328 1 21.868496782529704 8.345872609511332 14.049365557080074 0 0 0
3975 1 20.14938088856199 6.557845012707813 15.866900556716907 0 0 0
4011 1 20.15389877760629 9.38541347409221 15.630041606593533 0 0 0
3330 1 24.564849315087702 8.318886694557028 14.360653231489822 0 0 0
3977 1 23.286850235115942 6.356507453413361 15.713096912440822 0 0 0
4013 1 23.0833407801371 9.543315810701575 15.928428253028645 0 0 0
5160 1 15.41741066132187 -0.6840862622988397 20.457352897290573 0 1 0
4033 1 -0.5103329306389159 12.164211980687291 15.651157206345037 0 0 0
5993 1 23.091185521163677 12.523688228765616 24.369011286867853 0 0 0
3999 1 2.4523485279751736 9.190958638146286 15.856351600598455 0 0 0