LAMMPS data file via write_data, version 2 Aug 2023, timestep = 2700000, units = metal

11664 atoms
1 atom types

-0.7562393831733267 52.669270028753985 xlo xhi
-0.7563952079401979 52.669114203983796 ylo yhi
-0.7559833079716114 52.669526103956855 zlo zhi

Masses

1 55.847

Atoms # atomic

650 1 1.2686814019420654 2.1188403892556757 2.364566734266879 0 0 0
651 1 2.6332820370041827 0.3617392268895949 0.9686754630822625 0 0 0
649 1 -0.17365761177407502 0.6036838175157235 1.1975593428450644 0 0 0
653 1 5.493299379584813 0.6232310870692794 0.7176807231341205 0 0 0
652 1 4.039971314127072 1.9696379171492229 2.3240926435123637 0 0 0
655 1 8.12653411459932 0.6076574864172344 0.7930382598707173 0 0 0
654 1 6.799989193075791 2.0286551373323425 2.1515319259644583 0 0 0
657 1 11.080750982644716 0.5629944205507291 0.47675353803830345 0 0 0
656 1 9.6629436611234 2.0460597213192298 1.9929137652421396 0 0 0
1405 1 -0.6289419187025667 9.256497266911287 3.706729217563189 0 0 0
658 1 12.77442333399372 1.965030806374127 2.0393103804223225 0 0 0
659 1 13.977207449113557 0.47226627819560396 0.4788438229438914 0 0 0
660 1 15.600783040832198 2.173768108783192 1.9766255045915875 0 0 0
661 1 16.971487340315985 0.5470666672622655 0.6622209542665847 0 0 0
662 1 18.5487277462556 2.0943934095244017 2.1317280750800145 0 0 0
663 1 20.004969887630057 0.6568275736484068 0.8230790227644733 0 0 0
664 1 21.517568277089367 1.9768981082490567 2.250738380756129 0 0 0
665 1 23.024198525335184 0.6632331909129623 0.9922539043037846 0 0 0
666 1 24.492488180180022 1.850142574513482 2.5067583790745305 0 0 0
703 1 25.821053070648755 3.4890013468319614 1.196293018625721 0 0 0
1924 1 21.41281957390794 -0.749844324557742 5.191774679040841 0 1 0
687 1 2.5883983489491245 3.6698133806416235 0.8681528356416013 0 0 0
686 1 0.855819879395568 4.922495123489829 2.248945148682416 0 0 0
685 1 -0.49679948307742183 3.1955624842864525 0.8723377183151251 0 0 0
8 1 9.764819005697525 2.174031728136623 -0.7369884053319474 0 0 0
689 1 5.241282630082373 3.5134608781517693 0.845717835111168 0 0 0
688 1 4.199816705583625 5.282466437509698 2.3013526255642653 0 0 0
2647 1 25.710199429334 3.618140924528703 9.712968473326393 0 0 0
691 1 8.178637512227287 3.602796905826575 0.671863131389455 0 0 0
690 1 7.085050190052078 5.32990385740144 2.267989290069249 0 0 0
692 1 9.802752290919079 5.1495139928241045 2.044868917940104 0 0 0
693 1 11.355763769252126 3.396444330659116 0.7057937217490433 0 0 0
694 1 12.63222847026238 5.306228812202364 1.9382516572540798 0 0 0
695 1 14.076577490866622 3.4544628874112036 0.5474104009108145 0 0 0
696 1 15.366960262547941 5.154337587269751 1.7371472267943364 0 0 0
697 1 17.34819458820033 3.541800865905885 0.6868533169286402 0 0 0
698 1 18.504752557345057 5.1752437504232205 2.0685620901238084 0 0 0
699 1 20.018612976595286 3.59504958113921 0.9181056807453511 0 0 0
700 1 21.48652208463554 5.032312452916217 2.2343951206393804 0 0 0
74 1 1.0838934288346191 7.965688488258561 -0.5331389491006281 0 0 0
701 1 23.295278449340177 3.4255263194572345 1.0497699313306508 0 0 0
702 1 24.68712717626942 5.288384447363221 2.450836807788408 0 0 0
722 1 1.023259461721109 7.864938999121595 2.5056785734775193 0 0 0
723 1 2.416809695401441 6.519535584625397 1.1129628591403933 0 0 0
667 1 25.89937236649732 0.6119706257869433 0.7926935785352522 0 0 0
725 1 5.577430629389416 6.764421642439153 0.7551057172172524 0 0 0
724 1 4.112828482237378 7.888310059997297 2.257722918580703 0 0 0
2719 1 25.880492731353403 9.383320986156644 9.818817936446528 0 0 0
727 1 8.336158531575363 6.632250927861313 0.34710027166921353 0 0 0
726 1 7.001777925484932 8.213363593480855 2.2587091818177423 0 0 0
721 1 -0.5798992225057289 6.4375213489454595 1.2172551836598546 0 0 0
729 1 11.083362219851075 6.657246576847646 0.6252249163574408 0 0 0
728 1 10.020338132796093 8.217315889674163 2.3025873059065 0 0 0
730 1 12.568846575268156 8.051801737823475 2.2541547721760287 0 0 0
731 1 13.943212955898058 6.559720295490249 0.5147075299833928 0 0 0
732 1 15.719345665027 8.277488539770639 2.114934261842452 0 0 0
733 1 17.099050140591494 6.343394634678633 0.5796020433860647 0 0 0
734 1 18.937402676789667 8.437731489935704 1.9869230251674121 0 0 0
735 1 20.32666353159563 6.682195333023991 0.7275535407353655 0 0 0
736 1 21.73828476281342 7.845105679779737 2.275285730102567 0 0 0
757 1 -0.5906699879729909 9.306178895235698 0.8007025712088145 0 0 0
737 1 23.090409594459906 6.503635840722606 0.5953916034141158 0 0 0
738 1 24.79508517444794 7.9166846765625944 1.9729108535332625 0 0 0
1423 1 25.856665621042577 9.536582872013936 3.709083455289405 0 0 0
758 1 0.5973411029169862 10.912993296130752 2.353708037588075 0 0 0
759 1 2.569893276434554 9.531633583880824 0.7805743676730059 0 0 0
801 1 11.504329934143021 12.354712046955994 0.7114599428152311 0 0 0
1333 1 -0.3112729259066659 3.1949561907684134 3.8535486180336243 0 0 0
761 1 5.499007227727066 9.555342490426147 0.5080631862889757 0 0 0
760 1 4.115800451217863 11.07027870970766 1.9711049309485364 0 0 0
1920 1 15.408902457167265 -0.5462261012697835 5.225270434093378 0 1 0
54 1 24.577008878262312 4.641623047545268 -0.619060017715447 0 0 0
763 1 8.601609751320872 9.729747838634584 0.5776889402192611 0 0 0
762 1 6.86660647212278 10.768963209144305 2.0507710140506754 0 0 0
811 1 25.89366718462845 12.277599357752969 0.49363787012435156 0 0 0
765 1 11.317876580003565 9.729420677102123 0.8435791827323726 0 0 0
764 1 9.924010622250426 11.238924006623304 2.236377947006054 0 0 0
766 1 12.947003017341961 11.114347450418053 2.2906764190465005 0 0 0
805 1 17.20616195406299 12.56454124051294 0.887671239020059 0 0 0
767 1 14.353692428212025 9.560194254831499 0.6880833246452343 0 0 0
768 1 15.890833190705557 10.94325127062783 2.4243694003126754 0 0 0
80 1 9.969020505646347 8.28557288644618 -0.6534954415812985 0 0 0
769 1 17.347760279565527 9.675974960282339 0.7483268956778182 0 0 0
770 1 18.86023544345674 10.995743970487094 2.269199969277134 0 0 0
1441 1 -0.4666193425337101 12.406383517023494 3.8263031450587297 0 0 0
1459 1 25.71475975227427 12.373335662080725 3.45239289899925 0 0 0
771 1 20.348016277523698 9.624585888846646 0.5598050524397424 0 0 0
772 1 21.567956314903007 11.041256339844411 2.01919641699501 0 0 0
38 1 1.1431850992442645 5.1233282138613685 -0.6205823295228095 0 0 0
773 1 22.84316417422828 9.337412936435436 0.7525848386305549 0 0 0
774 1 24.48011088430654 10.682722441449009 1.8913991497002063 0 0 0
6 1 6.682961860530199 2.2838017881290615 -0.7358134249612119 0 0 0
1916 1 9.571038176684496 -0.6007940095275426 5.046966103277499 0 1 0
1298 1 1.4568133537111971 2.216319116019932 5.259643416368036 0 0 0
2572 1 21.433332290040042 -0.6899555607444654 7.792784062828021 0 1 0
1299 1 2.5967991114301197 0.6606873770411745 3.7596451015899 0 0 0
1301 1 5.5370529548624186 0.7781604750260738 3.800128851131668 0 0 0
1300 1 4.183041451074827 1.8920116125609914 5.522700609892648 0 0 0
1303 1 8.354779488944704 0.6286031330723492 3.489485986667786 0 0 0
1302 1 7.21269031407745 2.3256416066149326 5.465615559009958 0 0 0
1305 1 11.224309046491683 0.6891935414752237 3.4696408678657793 0 0 0
1304 1 9.734291860308101 2.0818312167854005 5.140321099682987 0 0 0
1306 1 12.626870309362612 2.0549801311894815 5.169732083195544 0 0 0
46 1 12.529053601290379 5.020522652047579 -0.636284217782529 0 0 0
1307 1 13.844763627497064 0.3285195491053281 3.441774090818158 0 0 0
1308 1 15.212238244801702 1.8681294085691786 4.893899023039238 0 0 0
1309 1 16.741724032020713 0.6062793363251717 3.3605998595718996 0 0 0
1310 1 18.282718672084897 2.1963441587754016 4.723398829735397 0 0 0
1999 1 25.87413155513248 3.782735326872526 6.954984533449147 0 0 0
1311 1 19.964315213059155 0.6992279306556053 3.5654699881086342 0 0 0
1312 1 21.39551378962065 2.2529680140826387 5.268524629585905 0 0 0
2 1 1.289919261779625 2.021660219172744 -0.3652028360777569 0 0 0
1313 1 22.93634005636 0.7015616771961029 3.86127038066261 0 0 0
1314 1 24.395014341347128 2.3302820722597053 5.097578037864345 0 0 0
1274 1 18.29842112506304 -0.7305303782704726 2.158635801299294 0 1 0
1334 1 1.0485558552209278 4.91531519286549 5.227158293694268 0 0 0
1335 1 2.609338090397412 3.912371564155717 3.508033490913796 0 0 0
1337 1 5.700046292669388 3.5572693298305778 3.8865883093604525 0 0 0
1336 1 4.017697768570306 5.014079363748274 5.141608428149164 0 0 0
1339 1 8.318321986665318 3.3839710379622696 3.461476454230631 0 0 0
1338 1 6.800174027385032 5.19949522941232 5.213043012948569 0 0 0
1340 1 9.669202798245466 5.108141473680613 4.842630653222862 0 0 0
1341 1 11.298618435801803 3.5154144013967903 3.5247943908344324 0 0 0
1342 1 12.484761046053082 4.854561830540133 4.981681774617008 0 0 0
1343 1 13.999310002726931 3.6519096136238938 3.3612372071282888 0 0 0
1344 1 15.821654209449026 5.395783028326567 5.0836760941856465 0 0 0
1345 1 17.073430505895637 3.832017490099771 3.4652524813955496 0 0 0
1346 1 18.625883804617555 5.194024804689803 5.037112921485566 0 0 0
1347 1 20.053334248212266 3.39858417509988 3.579084494362922 0 0 0
1348 1 21.532266236997916 5.3630802937822075 4.982495982172456 0 0 0
1349 1 22.9918521671297 3.973338633304272 3.755390332373012 0 0 0
1350 1 24.73790849451792 5.0204186669422874 5.116233872977235 0 0 0
2718 1 24.581794351993185 10.762129766641095 11.260801937781467 0 0 0
3222 1 24.167381867825107 -0.380982284122157 10.982840583218442 0 1 0
1370 1 1.2358070075917182 8.057821909509437 5.039682071200618 0 0 0
1371 1 2.4897563872065747 6.412310933429797 3.6809851567445273 0 0 0
1373 1 5.508340030001034 6.879929946211801 3.7995888445220896 0 0 0
1372 1 3.7929421424094407 8.048470059245634 5.112466085733458 0 0 0
1375 1 8.349786069998009 6.888681652509008 3.616029695314106 0 0 0
1374 1 7.19988003864747 8.161454501569718 5.192165295773248 0 0 0
1376 1 9.863893028238511 8.182559046084602 5.0809922678132144 0 0 0
1377 1 11.261715514164807 6.517259631056137 3.619200729061344 0 0 0
1378 1 12.841614727569429 8.29675022992142 4.895678333144145 0 0 0
1379 1 14.09181042019833 6.475594786816875 3.704232817077459 0 0 0
1380 1 15.85021798250444 8.154402466159004 5.037695326178126 0 0 0
1381 1 17.14935865783112 6.684073043589851 3.376075512180769 0 0 0
1382 1 18.673977018787436 8.232422108824823 5.076714331433793 0 0 0
1383 1 19.94361628794983 6.699114457498204 3.573026369271857 0 0 0
1384 1 21.530408030543185 7.958593818486841 5.114071046158746 0 0 0
2755 1 25.698694936811048 12.385752596950262 9.741074341307943 0 0 0
1385 1 23.227430803742596 6.800511782481397 3.7851917759794205 0 0 0
1386 1 24.719699923839627 7.747601756299154 5.344849337739413 0 0 0
1421 1 23.158272421154997 9.325098972638479 3.9520729976563116 0 0 0
2717 1 23.09882132811281 9.233547130135628 10.00465285101015 0 0 0
1406 1 1.0530091483386466 10.563231236707473 5.162610922992921 0 0 0
1407 1 2.6389630408757245 9.628414318883959 3.612093651912624 0 0 0
16 1 21.52039751683762 2.2213490416071986 -0.5530853540709543 0 0 0
1409 1 5.284412202278461 9.625971359901513 3.623527293234992 0 0 0
1408 1 3.9982630221725426 11.063168718824457 5.3667457770799345 0 0 0
2713 1 17.272255702043957 9.296478376151898 9.592510687752508 0 0 0
1411 1 8.55557343938334 9.545942808013375 3.655367475470867 0 0 0
1410 1 6.5840959782449335 11.052228918688634 5.204049581292044 0 0 0
1413 1 11.19984242220495 9.664309761107862 3.654098271675501 0 0 0
1412 1 9.938302712847404 11.023725195510849 5.257363529277546 0 0 0
1922 1 18.4206709220123 -0.6384736038859976 4.925698934887667 0 1 0
1415 1 14.334022685640383 9.523814945976522 3.6059206767765106 0 0 0
1414 1 12.833525818629672 11.0378025155641 5.297505968445377 0 0 0
1416 1 15.6160391140655 10.999236908286706 5.245215574711638 0 0 0
2093 1 5.368716443732607 12.583087434798609 6.70330904221363 0 0 0
1417 1 17.364391594627715 9.751553391665436 3.7169286688680137 0 0 0
1418 1 18.627687262874673 10.904055816630088 5.415012086160064 0 0 0
1297 1 -0.0708118741475422 0.6364434409823174 3.9868715276383453 0 0 0
1419 1 20.206021753969356 9.508156057197178 3.6573759599778803 0 0 0
1420 1 21.779634377683024 11.086356452974577 5.389522219708094 0 0 0
1422 1 24.562670197132498 10.997533350705474 5.2925744510351285 0 0 0
3355 1 8.3601890657585 9.491108506063128 12.57496683702371 0 0 0
2716 1 21.687913208362854 10.889341441662573 11.102439785707732 0 0 0
1945 1 -0.005905547796613675 0.695261327018448 6.675305042256339 0 0 0
1946 1 1.588527942924685 2.141779305802061 8.23521204184239 0 0 0
1947 1 2.721604818075769 0.5607054991833733 6.717185579791126 0 0 0
1949 1 5.797198056176983 0.5563545127624259 6.628055157866828 0 0 0
1948 1 4.236141119966837 1.6465006071700277 8.171816959454732 0 0 0
1951 1 8.495534504901803 0.8771188103306993 7.050420585152797 0 0 0
1950 1 6.669142553536106 2.2388338508158516 8.056776394348223 0 0 0
1952 1 9.937727141036193 2.3586216226345766 8.420660178084207 0 0 0
1953 1 10.946271829669211 0.5652266339227718 6.622942723763283 0 0 0
1954 1 12.709070776752608 2.452838594383378 8.14937243666857 0 0 0
2574 1 24.264233664818455 -0.38114539924036706 8.180111050891986 0 1 0
1955 1 13.801114610607161 0.6201840623461246 6.638350679405127 0 0 0
1956 1 15.693368575290485 2.2776936146898756 7.953800488361821 0 0 0
1957 1 17.060707590376147 0.6446806203154878 6.5771888606093905 0 0 0
1958 1 18.352296643800294 2.3552204937156924 7.720518449501727 0 0 0
1959 1 19.773666814053712 0.9680279282664987 6.394194545882876 0 0 0
1960 1 21.446393266191336 2.10488016952746 7.8934138615649445 0 0 0
84 1 15.747685737357234 7.836737782339281 -0.5939292996319182 0 0 0
2091 1 2.4052152836666747 12.39208619351397 6.604216446516947 0 0 0
1961 1 23.0506229984653 0.6721165468799162 6.488314080384272 0 0 0
1962 1 24.446646885355996 2.1463571034788935 8.13063484613908 0 0 0
1981 1 -0.19730432333000258 3.343056448897694 6.859625873810851 0 0 0
1982 1 1.2995768365509428 4.869808240461231 7.795669550716335 0 0 0
1983 1 2.929218575460018 3.522188558341621 6.7303301887297735 0 0 0
1985 1 5.438701847668837 3.8440091927059514 6.70635465176112 0 0 0
1984 1 4.118395310325765 5.44340332962912 8.053240935543032 0 0 0
1987 1 8.565168571485462 3.876803821862304 6.704615849381217 0 0 0
1986 1 7.0963841120387245 5.272948600320472 8.212280516550699 0 0 0
1988 1 9.731585045416294 5.3095100437768386 8.221060461259993 0 0 0
1989 1 11.013476402115819 3.49877189516057 6.635945998643144 0 0 0
1990 1 12.620696685305214 5.039179611659358 7.691939368605066 0 0 0
1991 1 14.31682958633914 3.434125368127403 6.452676899443334 0 0 0
1992 1 15.62236801291045 5.048961874553754 7.89906308962178 0 0 0
1993 1 16.67033068380996 3.596224799365701 6.331635485131295 0 0 0
1994 1 18.30812535239973 4.8478522204126016 8.162514227537196 0 0 0
1995 1 20.111797864187807 3.932716183589883 6.5137195114355695 0 0 0
1996 1 21.51034754180354 5.193436592573787 8.164374492843622 0 0 0
2101 1 16.891632346301922 12.268842385801468 6.800321967125214 0 0 0
1997 1 22.96673356583931 3.5494187366866266 6.74521809334868 0 0 0
1998 1 24.336855427821686 5.106348818729426 8.316491735813297 0 0 0
2017 1 -0.3554672287581568 6.221083491514216 6.632375105718065 0 0 0
2018 1 1.3252783776484343 7.748116870713192 8.196871408881233 0 0 0
2019 1 2.563207023814032 6.465056215302626 6.468386202325725 0 0 0
2021 1 5.483203919800081 6.837918229654663 6.601637300505427 0 0 0
2020 1 4.187230838343147 8.241892128669628 8.123646224150992 0 0 0
2023 1 8.258692072848426 6.695900980846123 6.7792628887202735 0 0 0
2022 1 6.747414316698557 8.250162382422094 8.032023131729451 0 0 0
2024 1 9.87557967850468 8.103218617776712 8.130007370236916 0 0 0
2025 1 11.33136674475496 6.660575617594309 6.26391135895011 0 0 0
2026 1 12.791081628610913 7.999664157658485 8.373311700214186 0 0 0
2027 1 13.900100542040922 6.664293544607557 6.581033317685874 0 0 0
2028 1 15.699796942518848 8.066092896069504 8.199452478713615 0 0 0
2029 1 17.144531855247635 6.693815687705585 6.8532726336897625 0 0 0
2030 1 18.999815683484567 7.996255494566768 8.07768916509345 0 0 0
2031 1 20.050077960110972 6.313059243263087 6.5667925843273585 0 0 0
2032 1 21.562267974763937 7.873472952102636 8.302886353752127 0 0 0
76 1 3.9272393727206802 7.935368992621509 -0.7519884487296428 0 0 0
2033 1 23.09281754108192 6.21567882497534 6.716169984438152 0 0 0
2034 1 24.697196248649735 7.905028804819999 8.306739286311503 0 0 0
2069 1 23.05572511059102 9.25685158482835 6.705022166323313 0 0 0
2053 1 -0.26435101102761005 9.329784704810331 6.7891400116546485 0 0 0
614 1 0.9147940347230841 -0.7462325098903333 -0.4588538794311407 0 1 0
2054 1 0.9293170664389256 10.866827907486583 8.28688139624923 0 0 0
2055 1 2.65903474482798 9.394913481350018 6.647020403991393 0 0 0
2712 1 15.94824731455192 10.689599665982302 11.145389350171364 0 0 0
2056 1 4.082624058875071 10.778227894995558 8.13519896050145 0 0 0
2057 1 5.431422861103079 9.331209135285548 6.27470542420273 0 0 0
2709 1 11.466487231765306 9.780406155928352 9.693634234211933 0 0 0
2059 1 8.589845274856637 9.615844300056878 6.686008310111707 0 0 0
2058 1 6.6267767210789925 10.95163381667165 8.019844066111803 0 0 0
2061 1 11.594114824229878 9.57342431941332 6.78333350900473 0 0 0
2060 1 9.959698835782682 11.163301223421508 8.232713149660784 0 0 0
2062 1 12.841147073059581 11.129212989886804 8.060655680782757 0 0 0
2063 1 14.268133675451844 9.200866398776997 6.647984091268127 0 0 0
2064 1 15.401930300918266 10.957122339905215 8.271117834141744 0 0 0
3216 1 15.425987859501937 -0.7082444211365697 11.05659765243024 0 1 0
2065 1 17.158636264114318 9.510017565448564 6.796742707610529 0 0 0
2066 1 18.74292238959201 11.006573088260549 8.286532379299446 0 0 0
2067 1 20.392454078306148 9.375431405694412 6.602252449653353 0 0 0
2068 1 21.439809413617354 10.838014949518227 8.245375211152922 0 0 0
3257 1 22.538924172592388 0.727376639668621 12.508554943701757 0 0 0
2714 1 18.506496781268105 11.092717141391276 11.155183572893081 0 0 0
2070 1 24.310074878302455 10.603947153091362 8.407259399585763 0 0 0
2105 1 23.116044967555002 12.263335070044329 6.954875138617049 0 0 0
2593 1 -0.08864218396895096 0.37808573628308473 9.429021251324075 0 0 0
2594 1 1.1261801921730625 2.156707038200704 11.018013598308073 0 0 0
2597 1 5.707505642727561 0.448918934246759 10.058811185884984 0 0 0
2595 1 2.834552397170952 0.2525523304427433 9.866194810067052 0 0 0
2596 1 4.083811439190194 2.207112908941056 10.999134276552873 0 0 0
807 1 20.249629493983463 12.520185761477325 0.660790415756862 0 0 0
2599 1 8.4908917101383 0.35794063809339405 9.541229281397712 0 0 0
2598 1 7.197748670635155 2.394963273227355 11.118606542078465 0 0 0
2601 1 11.241066705387752 0.7226885231962401 9.569644120868134 0 0 0
2600 1 9.867288838476137 2.6015141558757624 10.779394718071362 0 0 0
809 1 23.132680087131856 12.384040840438448 0.7931367255170705 0 0 0
1268 1 9.733881064677394 -0.7396704774338616 2.065376447932169 0 1 0
2603 1 14.000862323941623 0.7087618968846725 9.4024209707984 0 0 0
2604 1 15.290888522390777 1.9936429895049086 10.955435639618196 0 0 0
2602 1 12.827437441400875 2.231804500065256 11.057684396229716 0 0 0
2605 1 16.976322971597725 0.558951589784549 9.55882212137428 0 0 0
2606 1 18.446468246068545 1.929549717942396 11.123779200113521 0 0 0
2707 1 8.32897307349269 9.68820857880354 9.374320185631332 0 0 0
2711 1 14.305600709513328 9.41078888558286 9.731249294948682 0 0 0
2607 1 19.77119494487005 0.6749075830038407 9.523356152294255 0 0 0
2608 1 21.15089479439118 2.1797637418216835 11.049009988505517 0 0 0
1447 1 8.254388389136054 12.33310586469893 3.754029360708288 0 0 0
2609 1 22.690604067123996 1.1183750894231002 9.67307280830974 0 0 0
2610 1 24.30007583624849 2.129243955970429 10.995265411375197 0 0 0
2629 1 -0.21611314852019015 3.404122139677182 9.340033551897106 0 0 0
2630 1 1.0231156784930113 4.745644102261861 11.398498421837672 0 0 0
2631 1 2.6680406325137453 3.9128945352099667 9.488527896987998 0 0 0
2753 1 23.03080626132041 12.313879261156762 9.556545674506108 0 0 0
2633 1 5.669252487604457 3.8027726603056893 9.587646283857636 0 0 0
2632 1 4.1728106081025205 4.814439681286662 11.155255157619665 0 0 0
2635 1 8.33598270704258 3.956817936876215 9.67524649843538 0 0 0
2634 1 6.923160992308654 5.042632898456958 11.274622601987046 0 0 0
2637 1 11.613537666295889 4.11678721003221 9.86435021767247 0 0 0
2636 1 9.858962894436846 5.371302129845317 11.533678551804654 0 0 0
2638 1 13.224931803671241 5.030859526349701 11.42871132726161 0 0 0
2639 1 14.026096311631907 3.9379214323383653 9.499817465495687 0 0 0
2640 1 15.684617665892215 5.396906081209052 11.189908244202524 0 0 0
2641 1 16.754901925400375 3.766918771610075 9.637012545634684 0 0 0
2642 1 18.56210954475667 4.843632390846009 11.26692348957441 0 0 0
2708 1 9.66761841701815 11.141278765658043 11.15589728298641 0 0 0
2643 1 19.915877125098746 3.8400614578183996 9.616363207186332 0 0 0
2644 1 21.51508511350239 4.959527601396928 11.433303774053588 0 0 0
3253 1 16.882212342031497 0.6715472435742627 12.462349799634767 0 0 0
2645 1 22.661226996171003 3.6489047447280356 9.689159733046061 0 0 0
2646 1 24.337149986872856 4.862755741769911 11.251653000009556 0 0 0
2666 1 1.0048892580685385 7.708986999013758 11.267148310693257 0 0 0
2665 1 -0.11227315392436243 6.183039312805053 9.480830278432917 0 0 0
2667 1 2.7314157895348252 6.549777108645628 9.86035802544949 0 0 0
2669 1 5.616908113938671 6.381129492792991 9.752036179776255 0 0 0
2668 1 4.126782610080487 8.178749700434222 11.275337970143363 0 0 0
2671 1 8.167756414325765 7.073456507832826 9.663242700976236 0 0 0
2670 1 6.609237606012926 8.09101111481691 11.331996130099853 0 0 0
2673 1 11.263518902835036 6.584642014974359 9.829330627113382 0 0 0
2672 1 10.005553260587757 8.549730782031437 11.175086129174538 0 0 0
2674 1 13.033249366958124 7.959998548289292 11.29121648474485 0 0 0
2675 1 14.294908374225809 6.438815989205838 9.431732132585529 0 0 0
2676 1 15.685018676469003 7.858146163875535 11.042091209296265 0 0 0
2678 1 18.50548239282852 7.782414112672589 11.189621453078548 0 0 0
2677 1 17.195078388900356 6.689658375451723 9.47657279361276 0 0 0
2715 1 20.04589653027899 9.565897143030652 9.811986021852745 0 0 0
2680 1 21.278537908577373 7.7761277409153475 11.346278116535208 0 0 0
2679 1 19.940750200631975 6.414745714972978 9.767606434021678 0 0 0
110 1 0.8170893507797363 10.475145629009079 -0.5804024929997654 0 0 0
2682 1 24.460172605163514 7.63768516321511 11.11016805092153 0 0 0
2681 1 22.74915384416554 6.3945888269382625 10.005860355394525 0 0 0
2701 1 -0.40867051648804575 9.172606142055475 9.868121364976352 0 0 0
2710 1 12.869631089264079 10.994430944800468 11.352219038877193 0 0 0
2702 1 0.9432248878145135 11.138991186174383 11.039641772624972 0 0 0
2703 1 2.305125499198682 9.411812579609494 9.733951309978881 0 0 0
2706 1 6.89475197163392 11.164927209505905 11.075319301945466 0 0 0
1278 1 24.287710673588425 -0.7170660300461265 2.594751742559812 0 1 0
2704 1 3.768417519126663 11.048408382603949 10.942047383796153 0 0 0
2705 1 5.489829097983994 9.710616257429036 9.814239190186203 0 0 0
1453 1 17.25213099117069 12.511392052262567 3.6121887057907696 0 0 0
2749 1 17.144130125377124 12.311926304962903 9.559440254540478 0 0 0
2095 1 8.297448659334016 12.467393661814077 6.457733850417407 0 0 0
2747 1 14.523212550789195 12.322594476043724 10.042542282102598 0 0 0
1443 1 2.331960046331934 12.52915920807613 3.9017172205902835 0 0 0
1455 1 20.356000541414694 12.554441582736912 3.5599866501588036 0 0 0
2089 1 -0.4371996709625212 12.455291514407973 6.94328801722621 0 0 0
795 1 1.9929001856327 12.392386355202825 0.6448528398042968 0 0 0
2570 1 18.4010562327774 -0.6896671839560184 8.04577285908451 0 1 0
2743 1 8.38396651563276 12.55171850125261 9.666123363009028 0 0 0
52 1 21.53641134221838 4.906323245518648 -0.38004346657260113 0 0 0
40 1 3.9784238633188567 5.252780225664481 -0.35524779477704926 0 0 0
1445 1 5.222269458637091 12.552094118114498 3.4629104061428873 0 0 0
1457 1 23.23494666422805 12.46294552014452 3.6094186564407194 0 0 0
2103 1 20.1515691920632 12.554920170201125 6.597785187869332 0 0 0
793 1 -0.3893473095230757 12.355102122270116 0.5776732524350161 0 0 0
2739 1 2.5450328398126114 12.32369506928591 9.273172479909185 0 0 0
3295 1 25.730211173995688 3.491162144603604 12.586388379747174 0 0 0
3363 1 19.894377357508557 9.613248884947796 12.529123143502535 0 0 0
803 1 14.289407937453968 12.322190420741167 0.5274322999887815 0 0 0
3353 1 5.262186899319292 9.763936854587767 12.55718155136607 0 0 0
3243 1 3.0755817133865118 0.48131433577702487 12.32826102451567 0 0 0
3245 1 5.610579524945889 0.505850801925791 12.431261598672148 0 0 0
3289 1 16.7985763554919 3.57336871272802 12.396648797313132 0 0 0
3351 1 2.455934864110353 9.696398792906598 12.4218777941027 0 0 0
112 1 3.6561368041346496 10.969168897780486 -0.7351689528167142 0 0 0
86 1 18.574852073775343 7.8794829311173515 -0.7443909674608804 0 0 0
4 1 3.795684635661371 2.104041399322988 -0.4670026586205225 0 0 0
3242 1 1.5353660274711651 1.5394282771530188 14.248348919762602 0 0 0
3889 1 -0.2225157547810933 0.39101883832206474 15.565127373300758 0 0 0
3891 1 2.8320041155559004 0.19290803413755953 15.745830403736335 0 0 0
3385 1 -0.46570522442193424 12.36041012493699 12.645201110778844 0 0 0
3329 1 22.99850412358037 6.4698608167512495 12.653677837688713 0 0 0
3244 1 4.227811638240011 1.9149129603566464 14.107436621451312 0 0 0
3893 1 5.788428937638028 0.8239014115016223 15.933930112758638 0 0 0
3246 1 7.052192165411144 1.870237112161516 14.150162591896025 0 0 0
3367 1 25.77945867847872 9.193291098383098 12.748920892565563 0 0 0
3897 1 11.245623069411593 0.47621816483091894 15.751099633645921 0 0 0
3248 1 9.899289989033035 1.8718594279994378 14.252520745029777 0 0 0
3907 1 25.92054884176923 0.500160181786675 15.45373621818893 0 0 0
3321 1 11.530398395738555 6.529940077929541 12.90872116528213 0 0 0
3250 1 12.506059896175586 1.816124765343866 14.078638703732663 0 0 0
3252 1 15.556336606096764 2.034928210420395 14.326047182522988 0 0 0
4681 1 -0.1746524923331575 12.525665581877236 18.951379688535503 0 0 0
5804 1 10.016377299562055 -0.6355956329913255 23.097916255371867 0 1 0
3979 1 25.75310552566294 5.968918871411611 15.344377323443108 0 0 0
3254 1 18.255841074689858 2.149562315504514 13.95818709020855 0 0 0
3901 1 17.133207163397188 0.5265659671262617 15.830972747708032 0 0 0
5185 1 -0.3305795956366379 0.34094751361654274 21.692075734534374 0 0 0
3256 1 21.333895938536582 1.9821883416112684 14.331665655162931 0 0 0
3903 1 19.93201851990997 0.3222904141493952 15.482084564365245 0 0 0
3905 1 22.745041557066898 0.5800504540208609 15.64953262536747 0 0 0
3258 1 24.256802516147648 1.898538437563046 14.297253261350196 0 0 0
3327 1 19.979514439815667 6.327667018054742 12.894939732580339 0 0 0
3259 1 25.594455853723233 0.6356300190018733 12.611000102932257 0 0 0
3278 1 1.4141688902569163 4.935367149476225 14.358139842187429 0 0 0
3925 1 -0.20421118522047343 3.3424904837102414 15.519579006220628 0 0 0
5802 1 6.784208396509986 -0.7050403228798956 23.282714369022386 0 1 0
3280 1 3.8445045988134785 4.841554046945386 14.367490125320753 0 0 0
5979 1 2.247373878637159 12.340257396354495 24.59967847046932 0 0 0
3929 1 5.424731102117021 3.3391565055323245 15.641224139553508 0 0 0
3282 1 6.718965346436069 4.769033870680504 14.136783269049376 0 0 0
3931 1 8.367497300453222 3.6625057850487304 15.507875010239058 0 0 0
3241 1 -0.28566736280174165 0.6425904540399123 12.779558022411788 0 0 0
3287 1 14.066212119255432 3.351532475275947 12.890443521288288 0 0 0
3284 1 9.76687259925249 5.248711203446478 14.310652651685757 0 0 0
3933 1 11.351229933781477 3.5641174132650386 15.590889398695058 0 0 0
3286 1 12.968788388525255 5.137700317523928 14.515471855250341 0 0 0
3288 1 15.6591760059307 5.065899179416831 14.19461197500595 0 0 0
3255 1 19.903055339795163 0.8105747898978859 12.802553500256728 0 0 0
3290 1 18.488087460269107 5.044621192868749 14.244549606429112 0 0 0
3292 1 21.668795063122417 5.117208041197113 14.163602447388453 0 0 0
3939 1 19.826980568694726 3.5119496538539474 15.64336412860947 0 0 0
4591 1 25.785394446462035 3.1772145920613246 18.690994165014907 0 0 0
4555 1 25.632769703908856 0.6607028099166503 18.716858560730394 0 0 0
3294 1 24.055742658502737 4.7969571584267525 13.985634678735682 0 0 0
4627 1 25.62604831458367 6.093963196985228 18.709335234842655 0 0 0
3313 1 -0.21368273616008726 6.410703571009463 13.20426985068113 0 0 0
3314 1 1.1431118170358874 8.103870878985985 14.263331358389038 0 0 0
3961 1 -0.5485413597363025 6.153505149733042 15.62947641759692 0 0 0
3963 1 2.497126679314072 6.63724741117478 15.690353277363506 0 0 0
3315 1 2.9649502401065195 6.2027055512891085 12.708162120899354 0 0 0
3317 1 5.495040519272315 6.482667984157453 12.758252871878963 0 0 0
3316 1 4.067866111457068 8.31542771496613 14.190970019681888 0 0 0
3965 1 5.414584573757444 6.558553198868086 15.50127338659852 0 0 0
3318 1 6.88994769122822 8.30671301005714 14.217262379119212 0 0 0
5160 1 15.521772362788091 -0.6494419951594076 19.795542710503618 0 1 0
3320 1 9.653714129091565 8.11435640441178 14.0776532293923 0 0 0
3969 1 11.634031663522842 6.742624405678181 15.678932079730156 0 0 0
4037 1 5.227900349130376 12.303162105863208 15.829282224927827 0 0 0
3322 1 13.011654104930768 8.316300146522448 14.2659468876916 0 0 0
3324 1 15.778959415601388 8.114089628843564 14.431909822947581 0 0 0
3283 1 8.57524153473748 3.5992975719029 12.853242908335316 0 0 0
3971 1 14.195890654310722 6.657442650891498 15.880847627834811 0 0 0
3326 1 18.872221605139924 8.007605720902385 14.227493472735226 0 0 0
3973 1 17.061733852344286 6.459449385761207 15.785782108162564 0 0 0
3325 1 17.056659425626734 6.577948360989349 12.847609431883608 0 0 0
4663 1 25.83382106419706 9.25492369377563 18.952493187732884 0 0 0
3328 1 21.636138254467856 7.93311754266113 14.31831049727982 0 0 0
3975 1 19.77535431239431 6.386258638144104 15.665725187901003 0 0 0
3330 1 24.315533731525406 7.67370758647516 14.210957143374234 0 0 0