LAMMPS data file via write_data, version 2 Aug 2023, timestep = 2900000, units = metal

11664 atoms
1 atom types

-0.7989047527600945 52.71200306537186 xlo xhi
-0.7991232311070355 52.711784587022635 ylo yhi
-0.798560141837239 52.71234767629467 zlo zhi

Masses

1 55.847

Atoms # atomic

650 1 1.3146771143915563 2.0585090197426816 2.1122897265476643 0 0 0
651 1 2.145400968595603 0.4871261280585415 0.6098288028497283 0 0 0
2665 1 -0.6348607836833294 6.439168111216436 9.252361678982632 0 0 0
2683 1 25.842821675199907 6.644562919564069 9.591876912510742 0 0 0
653 1 5.2570762957492185 0.968355017031824 0.18190340760957235 0 0 0
652 1 3.9452380790516495 1.920316408430136 2.029171538924862 0 0 0
655 1 8.495682699740819 1.0514569373242253 0.29964915672679204 0 0 0
654 1 6.978009564017113 2.109875509462137 2.028974673948378 0 0 0
1266 1 7.21931000780177 -0.4218671395662078 2.071087735727308 0 1 0
657 1 11.397305485269486 0.7908227639349399 0.22021204183941867 0 0 0
656 1 10.016430395469346 2.309867541521635 1.8808962329340004 0 0 0
658 1 12.763356939459944 2.3570070855212153 1.5809167043766301 0 0 0
1268 1 9.977804549075923 -0.17207139931102655 1.9256511413368465 0 1 0
3277 1 -0.682713717555238 3.633367281859301 12.471561094002636 0 0 0
659 1 14.21282370936849 0.4179663793395898 0.26487303761049485 0 0 0
660 1 15.837460831563742 2.220700545902651 1.8928815105029897 0 0 0
661 1 16.817970451977853 0.7372939559569127 0.3771633599148718 0 0 0
662 1 18.46695621036153 2.2544429859992947 1.71626888393231 0 0 0
1912 1 4.152212758773378 -0.4682859350507385 5.084263585874557 0 1 0
663 1 20.352712481256624 0.4659112218377348 0.7935170001139948 0 0 0
664 1 21.72245315729276 2.101054260538334 2.0873914398246476 0 0 0
1405 1 -0.7682336532505687 9.61304774293201 3.4279153954948702 0 0 0
665 1 23.55747737346518 0.8960206022448656 0.7241043597168981 0 0 0
666 1 25.082848805073656 1.9879362042804298 2.153745906281085 0 0 0
38 1 0.5009515123510788 5.227349422977285 -0.7111099573414956 0 0 0
686 1 0.8950323005649412 5.291639914491573 2.1310621267664236 0 0 0
687 1 2.7051317910274832 3.802695383429416 0.7072594458997066 0 0 0
1981 1 -0.20316205572666912 3.6814137241812173 6.590781843641637 0 0 0
689 1 5.128196225840569 3.6549312560246587 0.4475176780952166 0 0 0
688 1 3.922287352269823 5.554321152387337 2.155898705125709 0 0 0
691 1 8.521001740882902 3.807999522623329 0.3718872392315655 0 0 0
690 1 6.610867305681438 5.148850213800927 1.7073381568503154 0 0 0
693 1 11.276544149062426 4.0539980274974905 0.7407469740755093 0 0 0
692 1 9.626311167137315 5.465844202442139 2.1618604627644946 0 0 0
694 1 12.774403413146 5.7083224344326196 1.6150181595928643 0 0 0
695 1 14.499342546276763 3.8454495636187973 0.5576753475950567 0 0 0
696 1 15.622828293418415 5.375314839345671 2.054282903116804 0 0 0
697 1 17.2866147273728 3.7735717957482144 0.39291635185811047 0 0 0
698 1 18.76088129526455 5.164171482569419 2.1076413148382254 0 0 0
699 1 20.145319821177676 3.550402796653846 0.5863564468115363 0 0 0
700 1 21.544642199573303 5.091179801536237 1.9154785814375237 0 0 0
701 1 23.309030671280127 3.4319673668067763 0.8531299037473408 0 0 0
702 1 24.763722865937037 5.056090278172279 2.1669575471553677 0 0 0
722 1 0.9945956809765497 8.112448158154658 2.138296701795027 0 0 0
723 1 2.4520492616638796 6.497507527292411 0.6220541609606918 0 0 0
725 1 5.268920901025657 6.526673482647538 0.4428379767887902 0 0 0
724 1 3.7484221189929183 7.868888654935375 2.1529643496152384 0 0 0
727 1 8.285016225261536 6.609121031874024 0.24713826373058123 0 0 0
726 1 6.8603079909475655 7.894936435637179 1.8753003662133678 0 0 0
728 1 9.744017488132428 7.991127526335529 1.9708136213848952 0 0 0
729 1 11.026660725793255 6.902668754392157 0.27625485946529516 0 0 0
730 1 12.723610111359337 8.234847935618184 1.9147994903330297 0 0 0
731 1 14.647712824114395 6.784813722806383 0.3913599209973151 0 0 0
732 1 15.911690134065953 8.329040225900835 2.013004957250109 0 0 0
733 1 17.0596028970802 6.434074353069483 0.4688010329796797 0 0 0
734 1 18.47428583614716 8.005532293304114 1.683849479808496 0 0 0
735 1 20.50539911450568 7.012428574298085 0.8370395010181924 0 0 0
736 1 22.06392659685831 8.159135287876918 2.1259248817161875 0 0 0
737 1 23.13860682549256 6.404079494336694 0.7127140162060113 0 0 0
738 1 24.87972384082369 8.232237206032348 2.0344909374559346 0 0 0
758 1 0.9546866584260847 11.019750147977833 1.8789750525022777 0 0 0
759 1 2.272153412265316 9.226390739445923 0.5236395321466003 0 0 0
2593 1 -0.38980811076820043 0.7132415644401702 9.06172918905332 0 0 0
1918 1 12.994337885246173 -0.7614055689141191 4.538941553601183 0 1 0
809 1 23.21921166335836 12.302513540123611 0.5044737664076897 0 0 0
761 1 5.137823294708934 9.491067488587454 0.7232666809830626 0 0 0
760 1 3.858533454420466 11.068999062435285 2.1050051871990534 0 0 0
763 1 7.9360054049795945 9.36033752070181 0.4093954750230455 0 0 0
762 1 6.902813605678681 11.021538879222614 2.0261257424305317 0 0 0
2611 1 25.57293482324994 0.6290921267142056 9.405104488279903 0 0 0
765 1 11.281744333442001 9.611053947880642 0.21122381970495074 0 0 0
764 1 10.006350050004857 11.021498780461757 2.103520016318243 0 0 0
1963 1 25.6863925355139 0.7971281300949133 6.331794168921479 0 0 0
767 1 14.44514680919968 9.924575677258721 0.25540184049752357 0 0 0
766 1 12.6927313641687 10.884272235220914 1.8031267317309236 0 0 0
768 1 15.6657199866987 11.271416106497366 2.0354000731322386 0 0 0
3241 1 -0.7045735465276356 0.502438978733124 12.455994542710014 0 0 0
769 1 17.165898986428466 9.841520014992268 0.5906497341460286 0 0 0
770 1 18.87707126062053 11.206058040072987 1.7013754248380537 0 0 0
2647 1 25.841425798509306 3.5354764302665993 9.27309466040342 0 0 0
1945 1 -0.36367499536789727 1.025545721702673 6.725385795377265 0 0 0
771 1 20.20622211170122 9.53758972597397 0.5700219080767939 0 0 0
772 1 21.888564909602636 11.068696215753725 1.970945601958789 0 0 0
50 1 19.187085034922443 5.437054543821746 -0.6149524186833046 0 0 0
773 1 23.498589629506554 9.76711061568459 0.4555630843761147 0 0 0
774 1 24.877930383677352 11.11256234536876 2.0086127229715163 0 0 0
685 1 -0.6977331321280351 3.74557349636388 1.0856892660334398 0 0 0
1299 1 2.632291458133858 0.7538440529935977 3.663370721035366 0 0 0
1298 1 1.047505707372128 2.0401403165481233 4.7647062879289255 0 0 0
1297 1 -0.6626455910955753 0.4892000476964826 3.4874652291604606 0 0 0
1301 1 5.577044636446907 0.7319753724805773 3.5255040792854384 0 0 0
1300 1 4.374825554157541 2.214948420933779 5.1074726930449135 0 0 0
1303 1 8.52653286225776 1.0720512732628389 3.682319545137875 0 0 0
88 1 22.169982255548298 8.055657842489337 -0.5979176528334454 0 0 0
649 1 -0.49853813322682095 0.8227556759709456 0.7085817038769009 0 0 0
1305 1 11.403647220777144 0.9201883298829749 3.555299927751726 0 0 0
1307 1 14.195768863406684 0.9373147884242505 2.9869646457194263 0 0 0
1306 1 12.85459947768137 2.3724752979589776 5.18248187927049 0 0 0
1308 1 15.484294501340141 2.087223148445071 4.648533644869109 0 0 0
1309 1 17.367366681090925 0.8443288144413947 3.2851197671876813 0 0 0
1310 1 18.69609922571976 2.3425596075768773 4.765418705430342 0 0 0
3206 1 0.9018430571642988 -0.6349380735354434 10.946539783103322 0 1 0
1311 1 20.040342920960562 0.907475213646507 3.357482429486084 0 0 0
1312 1 21.6661715906655 2.2878296319286875 4.788821998745307 0 0 0
1313 1 23.409105027612537 0.8517921020623451 3.679858713209228 0 0 0
1314 1 24.721867180511396 2.4763837185119657 4.745713445159715 0 0 0
1272 1 15.625619401185517 -0.7061895080432521 1.9910192046211637 0 1 0
1334 1 0.7931247953484684 5.216831003423058 4.7256257838040545 0 0 0
1335 1 2.5787762237658365 3.7455290751616097 3.5439593832315355 0 0 0
1337 1 5.397772621821589 3.7893838785021705 3.1613986699606134 0 0 0
1336 1 4.077060140699603 5.193488419363615 4.868262426772028 0 0 0
1302 1 6.761134979876162 2.5332693314627432 4.677899270758031 0 0 0
1339 1 8.408327408447468 3.7345923342838905 3.16374150530494 0 0 0
1338 1 6.96211174243683 5.027179675158695 4.823078282899396 0 0 0
1304 1 10.081827833084903 2.284649542024466 5.291245403369553 0 0 0
1340 1 9.717773653877435 5.1431226672370824 5.104879757424353 0 0 0
1341 1 11.475590629126359 3.7349724043049353 3.462015344570844 0 0 0
1342 1 12.497315315541323 5.211605195232591 5.296578655757402 0 0 0
1343 1 14.201556980635827 3.6350498541948735 3.245607675982167 0 0 0
1344 1 15.722021393314098 5.305671825318479 4.809398506583315 0 0 0
1345 1 17.180643523292634 3.8063466623618636 3.42180325505905 0 0 0
1346 1 18.5215007753483 5.3525751433637945 4.78718141223655 0 0 0
1347 1 20.063268871318304 3.850524768129964 3.5670926292952148 0 0 0
1348 1 21.603094905945248 5.406750948909592 4.808398575729336 0 0 0
1349 1 23.076970762188473 3.674474014352387 3.3211812066067496 0 0 0
1350 1 24.733902391183992 4.928085560097755 4.827987518835443 0 0 0
1370 1 0.8628540025986771 8.315487851300416 4.90534701018634 0 0 0
1371 1 2.302757494338405 6.699447162238971 3.5359361691651383 0 0 0
2753 1 23.344000703740583 12.475195776524934 9.569219725594014 0 0 0
1373 1 5.7362328823208 6.658038184612587 3.5730682014390256 0 0 0
1372 1 4.072279225967517 8.162217009163822 4.8541364069085935 0 0 0
1375 1 8.219555942758019 6.610813465951706 3.6326227173776475 0 0 0
1374 1 6.783713096705693 8.370247857120098 4.883426700777606 0 0 0
1376 1 9.576056448908506 8.462025315699934 5.280833828751775 0 0 0
1377 1 11.203094682369615 6.813109321577191 3.6580705136004266 0 0 0
1378 1 12.65332690870582 8.084192408241325 5.087938919360221 0 0 0
1379 1 14.026199447329775 6.874487720436152 3.423563651784602 0 0 0
1380 1 15.67946324591368 8.437936698008455 4.7946462780846835 0 0 0
1381 1 17.319708676574916 6.7163110969565 3.3100628053188323 0 0 0
1382 1 18.798116369732917 8.259942616947265 4.813458703597492 0 0 0
1417 1 17.368862291491908 10.064642260881731 3.3159642498684674 0 0 0
1383 1 20.10137986727215 6.855811373710626 3.370679128365177 0 0 0
1384 1 22.08994374485837 8.044714015237226 4.689035557894785 0 0 0
1419 1 20.328974992544016 9.375021113991643 3.2131889940366607 0 0 0
1385 1 23.093432587553206 6.392999463032375 3.3418894948552245 0 0 0
1386 1 24.456930241386168 8.172547866040889 5.2841078248441615 0 0 0
3253 1 17.138592743221867 0.5999095439563373 12.21059310440495 0 0 0
1406 1 0.9551504753171041 10.728359967522541 5.159792940964569 0 0 0
1407 1 2.3701018764359403 9.648247138267442 3.3365647023059006 0 0 0
1274 1 18.695307303864514 -0.7310801836737355 2.1350821466011265 0 1 0
1409 1 5.320291197262313 9.603334917468725 3.3604146877020478 0 0 0
1408 1 3.7423493465090925 10.545237857359593 5.062271740458888 0 0 0
2 1 0.9213344907419285 2.51870767382665 -0.3971254081035444 0 0 0
1411 1 8.390185078472461 9.693666955223152 3.484163503088004 0 0 0
1410 1 6.886237948806381 10.915852716293312 4.781940586121576 0 0 0
74 1 0.8177477294986599 7.698235418189336 -0.6583507554194367 0 0 0
1413 1 10.978412452523107 9.287205113076702 3.5331983047329674 0 0 0
1412 1 9.539981641820512 11.241059111748003 4.838637347118725 0 0 0
1414 1 12.399248711388546 10.838093669819688 4.945552624010249 0 0 0
757 1 -0.7733009454004753 9.329603477577018 0.5509884428022152 0 0 0
1415 1 14.002700703688264 9.602178974195342 3.3191130525840347 0 0 0
1416 1 15.419953997769337 11.016729084213253 4.719328339126576 0 0 0
2570 1 18.88492517052505 -0.7599280834466344 7.633334668333289 0 1 0
1418 1 19.09140687057708 11.097936909247142 4.731813548302841 0 0 0
3216 1 15.762365978131005 -0.685523425124714 10.76043335576597 0 1 0
1420 1 21.624322860986517 11.20480749526719 4.961594806167779 0 0 0
1910 1 0.8127369314562545 -0.5887920518529473 5.199178230661255 0 1 0
1421 1 23.378303659673097 10.088101227106117 3.539328062283813 0 0 0
1422 1 24.75316786884211 11.091974632614527 5.4113062495651265 0 0 0
3317 1 5.601431487800127 6.443957696357745 12.529212768686268 0 0 0
1947 1 2.5742219975436442 0.7638563624324832 6.389048794143766 0 0 0
1946 1 1.2270755198076335 2.322233017988785 8.117556781051324 0 0 0
3327 1 20.188224642113177 6.527876246770543 12.234793266769238 0 0 0
1949 1 5.569982967918234 0.5620699757755725 6.742743465683039 0 0 0
1948 1 3.9246197189819982 2.2701084774589777 7.773461681021363 0 0 0
2597 1 5.667118211183227 0.7080602131656142 9.406469101374498 0 0 0
2017 1 -0.700803685725192 6.437262830037566 6.405057690549888 0 0 0
1951 1 8.34700243952872 0.5030306852985089 6.258532819158296 0 0 0
1950 1 6.915391503770878 2.1586405332636778 7.720515674976298 0 0 0
1952 1 10.294141650737275 1.8814504027459478 7.948004070502167 0 0 0
1953 1 11.633847247266793 0.24610042195149484 6.346363498835713 0 0 0
1270 1 12.646029916321396 -0.5799287498635091 2.132614560298956 0 1 0
1954 1 12.73467219244747 2.326825983950777 7.924620812146387 0 0 0
1955 1 14.22423473602393 0.5231181661159279 6.287506348094117 0 0 0
1956 1 15.683189462232047 2.090101164727868 7.463173435741318 0 0 0
1441 1 -0.6900825267138249 12.385400872953113 3.526393843150254 0 0 0
3293 1 22.78026584675208 3.704492461714784 12.30065510104367 0 0 0
1957 1 17.13584176994333 0.7439979213177277 6.128072132367394 0 0 0
1958 1 18.65749715680234 1.9613837349851084 7.816680451695277 0 0 0
2747 1 14.291168524406332 12.516601669562116 9.44214818131805 0 0 0
1959 1 20.208280821197615 0.6937855800127812 6.014303605194828 0 0 0
1960 1 21.69190354371757 1.916447129908069 7.467115415013469 0 0 0
1961 1 23.084155053152756 0.4347836265062295 6.085566694861309 0 0 0
1962 1 24.40048616037302 2.2849777407709255 7.701136291367936 0 0 0
3249 1 11.592887094959487 0.7869761683060514 12.422039821837103 0 0 0
1982 1 1.1402246524828823 5.112537683242019 8.329885088038042 0 0 0
1983 1 2.551802653953845 3.8052246016388365 6.489383732625159 0 0 0
1985 1 5.553062550208988 3.8452558426803787 6.571021651513623 0 0 0
1984 1 3.9945540931281007 5.049765574963796 8.072472273031917 0 0 0
1987 1 8.330008629454728 3.698498167725207 6.388067320676657 0 0 0
1986 1 6.890915638187315 5.20671647555259 8.179326933205031 0 0 0
1988 1 9.510322318741103 5.547705729353135 8.365377894498032 0 0 0
1989 1 11.014442638373023 4.017585475151528 6.924860313661678 0 0 0
1990 1 12.698968753770625 5.330214620556929 8.041324526973098 0 0 0
1991 1 14.30929023109017 3.9946843586304652 6.434571582654971 0 0 0
1992 1 15.959202660477427 5.29427896022162 7.663611906436952 0 0 0
1993 1 17.07367334905718 3.5326782048370964 5.96823330196493 0 0 0
1994 1 18.79431450408184 5.1847082432341365 7.538324535942417 0 0 0
2641 1 17.16775113326435 3.4240160997326505 9.202947580454333 0 0 0
1995 1 20.094353006159388 3.427588485494522 6.4223936337479595 0 0 0
1996 1 21.25096404650116 5.35467494367473 7.970150103485105 0 0 0
1997 1 22.73161594050199 3.7725602900151634 6.248818276286781 0 0 0
1998 1 24.561988698983246 5.170208082004567 7.868570155784903 0 0 0
2645 1 22.808864225332442 3.6495401355702377 9.201509193454777 0 0 0
3291 1 20.222197254073787 3.697834058613851 12.54043817054453 0 0 0
2018 1 0.8770337756525339 7.8226270885645235 7.857068466386448 0 0 0
2019 1 2.6732812229944636 6.416787931441921 6.424183240298522 0 0 0
2021 1 5.690274722649035 6.470822976628307 6.373649605199059 0 0 0
2020 1 4.042141339671872 7.877513618129251 8.115644498299018 0 0 0
2023 1 8.30725475270292 6.6874841723750045 6.589602209266182 0 0 0
2022 1 6.829490811116789 8.282455661834321 7.893554989794556 0 0 0
2025 1 11.213730421566073 6.7914673861037675 6.5999695438813415 0 0 0
2024 1 9.963493557643101 8.189616239106709 8.066991843152696 0 0 0
2026 1 12.919397580968901 8.292768140064455 7.917390499221634 0 0 0
2027 1 14.315559016893673 6.770065549550047 6.274695374083625 0 0 0
2028 1 16.238126921993917 8.238193140137373 7.903997992783053 0 0 0
2029 1 17.110520021771464 6.87347044987379 6.15784677459072 0 0 0
2030 1 18.87294356987733 8.538500114944643 7.808347934429598 0 0 0
2031 1 20.234647081144622 7.039048722105352 6.566874036407548 0 0 0
2032 1 21.461751936909632 8.120225000999206 8.245699430336385 0 0 0
2033 1 22.898560507608593 6.556687130560418 6.571188150709852 0 0 0
2034 1 24.26400262880291 7.898993112528576 7.83199626338326 0 0 0
2055 1 2.479910270297211 9.206647313288359 6.4908277072268685 0 0 0
2053 1 -0.6755101016102483 9.37040518934403 6.81892860165687 0 0 0
2054 1 1.099104089850806 10.897128518095942 7.859515586177444 0 0 0
2714 1 18.519919897633365 11.181158246851103 11.110448576115159 0 0 0
2717 1 23.28559078798959 9.658590564497429 9.373739825198758 0 0 0
2057 1 5.220371898985737 9.395184100619494 6.593468208790085 0 0 0
2056 1 3.687159811612214 10.960751906101786 7.98926638128998 0 0 0
2059 1 8.324995539621286 10.055271809901633 6.668587393667777 0 0 0
2058 1 6.609051248609485 11.006991220692772 7.9911784742998275 0 0 0
3393 1 11.776731935458098 12.332536560039149 12.504026559224473 0 0 0
2061 1 11.259681757374702 9.51599349872493 6.639644419786689 0 0 0
2060 1 10.175890145108147 10.85527615839272 8.421470322790858 0 0 0
3212 1 9.928217849914182 -0.4930393961133164 10.794342150822823 0 1 0
2063 1 14.20153769009106 9.614610774159903 6.285482021313778 0 0 0
2062 1 12.784823457891548 10.845265612648513 8.117750232607957 0 0 0
2064 1 15.735512051691092 10.957668299734687 7.725242401689835 0 0 0
2707 1 8.4894540325887 9.531237579045518 9.57859195754617 0 0 0
2065 1 17.310205157815847 9.830824655431757 6.18949306003414 0 0 0
2066 1 18.923390717874895 11.451714220100007 7.930513756352463 0 0 0
2713 1 17.387546505515527 9.859848620689258 9.421278508799062 0 0 0
2067 1 20.29966087583282 9.625100624978515 6.340742579011628 0 0 0
2068 1 21.49464085745793 10.75139031433886 8.18110946404858 0 0 0
3363 1 20.18819311739411 9.64862595061432 12.40898136479721 0 0 0
3319 1 8.18934958235128 6.560599978666184 12.476829750820421 0 0 0
2069 1 22.93185756151866 9.671444998114087 6.560177807023754 0 0 0
2070 1 24.578233933108024 11.031993658423529 7.961379678353991 0 0 0
2743 1 8.244835624612644 12.430218703026735 9.211273299937455 0 0 0
2099 1 14.036959794438417 12.158200835092117 6.369257155254662 0 0 0
2594 1 0.8557989061488076 2.244724874043176 11.04787671387102 0 0 0
1914 1 6.948762654622051 -0.7733282559280241 4.827334633264995 0 1 0
2595 1 2.476143293105735 0.6074976997366328 9.436720772377878 0 0 0
2596 1 4.107068176096804 1.7902948636163578 11.063538449971668 0 0 0
2706 1 6.930562443100576 10.777548422522063 11.075997252951767 0 0 0
2718 1 24.58266689097833 10.961629854283538 10.969593823089975 0 0 0
2599 1 8.497983244864535 0.5213901904879785 9.168849516259444 0 0 0
2598 1 7.005458681559151 2.2512261671163576 10.80473196736176 0 0 0
797 1 5.440430089212769 12.39796950395411 0.5195607122660466 0 0 0
2629 1 -0.45143087629053447 3.6909289015795785 9.601973579654613 0 0 0
2601 1 11.62581308420028 0.6842842628300887 9.591011908300517 0 0 0
2600 1 10.036882817634574 2.0430449306811425 10.684566354910997 0 0 0
1333 1 -0.5610988766971587 3.584116223680689 3.7299835368849736 0 0 0
2603 1 14.120090520043677 0.8131405110205432 9.311346362704635 0 0 0
2604 1 15.651858067103078 2.1936856184657425 10.828258700609963 0 0 0
2701 1 -0.554123299662489 9.662214483605831 9.24293251514258 0 0 0
54 1 24.8378284781279 5.382102851226394 -0.7675924839678635 0 0 0
2605 1 17.186831682463357 0.8216827554366366 9.476062794810279 0 0 0
2606 1 18.63967354038266 2.411848756688688 10.942371377446145 0 0 0
2715 1 20.020647731516 9.704641649280983 9.738964629227164 0 0 0
3255 1 20.141746767536855 0.8429206580322381 12.2511184523753 0 0 0
2607 1 20.42909907213482 0.4395642785468481 9.334692410412854 0 0 0
2608 1 21.72483869609746 1.9448258541554768 10.917633618151074 0 0 0
2609 1 23.015640853544337 0.7066187095644394 9.22039865006373 0 0 0
2610 1 24.39260327120492 2.2757472641245204 10.900490082244298 0 0 0
2711 1 14.572959105538965 9.472457285631938 9.448649527261582 0 0 0
1920 1 15.763426562804653 -0.456868736381691 4.413115665726563 0 1 0
2630 1 0.8736528902795353 5.16013267962267 11.236781224757957 0 0 0
2631 1 2.7089311520073625 3.550443376662974 9.677393886027037 0 0 0
2704 1 3.3065200707312536 10.578637367987982 11.141330700608009 0 0 0
2633 1 5.263383591088384 3.594933575089157 9.291666241421922 0 0 0
2632 1 4.0543283483271475 5.221034670727483 11.123084417983454 0 0 0
2093 1 5.466884925897296 12.287281379811898 6.168352957985399 0 0 0
2635 1 8.62320201661514 3.3600260050249124 9.010222612952111 0 0 0
2634 1 6.924290552426552 4.941569724409856 10.684034450777963 0 0 0
2568 1 15.719597990466859 -0.7274531283388086 8.031012637234152 0 1 0
1369 1 -0.7251511827332086 6.8669888117587154 3.6148361092157124 0 0 0
2637 1 11.36071978025534 3.825375014789617 9.528873722529392 0 0 0
2636 1 9.993663189925307 5.517076937744277 11.012701192734056 0 0 0
795 1 2.3670778458016772 12.367572268742006 0.5206710847755902 0 0 0
2602 1 13.026700690620094 2.4416377038361863 10.774233130971952 0 0 0
2639 1 14.518016435312632 3.581019219225926 9.02365595323357 0 0 0
2638 1 12.952802514788308 5.17401041623089 11.037562183657101 0 0 0
2640 1 15.90977824337715 4.908905341891882 11.249875209980527 0 0 0
2642 1 18.691122338100616 4.938706092414646 11.279472059054136 0 0 0
3391 1 8.177796393246958 12.481776289064742 12.372607182184312 0 0 0
3279 1 2.6889624687634743 3.4431595045979506 12.35772910288123 0 0 0
2643 1 20.140486744736947 3.550321066625406 9.064918726882652 0 0 0
2644 1 21.31300541644041 5.127755725592641 10.534689004636595 0 0 0
2646 1 24.53764926676606 5.046756775012414 10.893421617064647 0 0 0
2716 1 21.692626085337185 11.233103164972446 10.806695509275983 0 0 0
2666 1 0.8582414161443637 8.031748354903288 10.82661682049247 0 0 0
2739 1 2.6456517974231395 12.48313683095529 9.899882663638465 0 0 0
3257 1 23.381518011315983 0.628834078455663 12.225170441719897 0 0 0
2667 1 2.559117456888069 6.59229868447598 9.679452242588805 0 0 0
2669 1 5.4702582609695565 6.609698541888101 9.73610635427686 0 0 0
2668 1 3.8719326859579075 8.13840147161296 10.907716152300658 0 0 0
3285 1 10.968679128050551 3.6649569750759756 12.322482632392378 0 0 0
2671 1 8.176737629760861 7.004139225027873 9.719497391835786 0 0 0
2670 1 6.74817147239606 8.258164113850587 10.967885180935822 0 0 0
2737 1 -0.3270065365956804 12.167217503942215 9.330728354185919 0 0 0
3220 1 21.8022438200313 -0.7799478637672479 10.88111373006797 0 1 0
2673 1 11.744716846086744 6.64232050604599 9.667578503451143 0 0 0
2672 1 9.991498523443216 8.087722719589669 11.145138890115502 0 0 0
2745 1 11.480830494665437 12.388544409166471 9.807470897601874 0 0 0
2675 1 14.56831150156848 6.816058915208595 9.451843343562025 0 0 0
2674 1 13.239158888245884 8.018887377380524 10.921100558919775 0 0 0
2676 1 15.896300346540272 7.994505731326527 11.294630609754032 0 0 0
1916 1 9.958801299442111 -0.726748666690247 4.948764716106101 0 1 0
2677 1 17.236779551735278 6.037773975638296 9.53901273324341 0 0 0
2678 1 18.585779664215156 8.249642001734728 11.087114006730447 0 0 0
3365 1 23.027855064226014 9.314616736252251 12.284511190829916 0 0 0
16 1 22.005879907735554 2.0316451358469103 -0.7141240197068867 0 0 0
2679 1 19.70343038593384 6.468785807437585 9.481156513656497 0 0 0
2680 1 21.542286659001896 7.946849309974851 10.63005434624695 0 0 0
2089 1 -0.39096326035056894 12.153619407662879 6.47759294421351 0 0 0
2681 1 23.117217827105804 6.452871778090563 9.449097204580656 0 0 0
2682 1 24.433805961287945 7.932428505942909 11.007992823482756 0 0 0
2708 1 9.997677719957233 11.078174952015887 11.25711770286978 0 0 0
1451 1 14.063454780533604 12.396278814644285 3.299103819698498 0 0 0
2712 1 15.952506557066151 11.124355716614083 10.988176562715914 0 0 0
2709 1 11.425129243689273 9.44328831097374 9.866295615319652 0 0 0
2702 1 0.8466316010319064 11.023069464941754 11.296886759105025 0 0 0
2703 1 2.120546517121974 9.365396827635335 9.358820266975778 0 0 0
2710 1 13.29280886251566 10.82829987201043 11.033209616360908 0 0 0
2705 1 5.244722152072925 9.613228809975231 9.371093135642454 0 0 0
3329 1 23.045922040345435 6.474684329457276 12.525021473023084 0 0 0
2741 1 5.329394568839914 12.129645612081527 9.735901705965118 0 0 0
2101 1 17.296341974740756 12.367925868680366 6.451585193092561 0 0 0
1278 1 25.018738166735098 -0.7284655437906885 2.339148183472654 0 1 0
2097 1 11.307020420228305 12.514069971073852 6.347945015999182 0 0 0
3247 1 8.634148930201354 0.6573008048390361 12.536408584477625 0 0 0
3210 1 7.189902321177425 -0.39447910958159954 10.852711596369273 0 1 0
2105 1 23.015002162985688 12.171165598760323 6.697066051488557 0 0 0
3251 1 14.519800155208822 0.6972463806901428 12.184723091440747 0 0 0
1264 1 3.7013913207355778 -0.7071363664707574 2.075274098103963 0 1 0
3283 1 8.44315929760712 3.9679634636541348 12.265239892092312 0 0 0
110 1 0.7186332805217062 10.953863507079305 -0.749010383783016 0 0 0
3401 1 23.271022616733234 12.503142275260585 12.481730942098826 0 0 0
1445 1 5.107597516847354 12.438810453813817 3.72706699748253 0 0 0
3313 1 -0.5172107863015633 6.604991595082316 12.540041294664702 0 0 0
1453 1 17.38960225912691 12.37125071294453 3.686097399498247 0 0 0
799 1 8.1338328976999 12.116340848246923 0.1710246564585035 0 0 0
1457 1 23.245374233324377 12.421437081642408 3.5849347225347046 0 0 0
1443 1 2.3210772647736997 12.370185911476076 3.749821692021455 0 0 0
3208 1 3.9486033378729255 -0.4916271974718465 11.057392328110415 0 1 0
3218 1 18.72048385938947 -0.7447475140918982 10.84971627433346 0 1 0
3315 1 2.117834521710703 6.768303164609629 12.343924688215022 0 0 0
2560 1 3.8457983219282603 -0.6596076925738349 7.9693628194799295 0 1 0
2572 1 21.70228949732136 -0.7103269763597524 7.735601693589562 0 1 0
3331 1 25.937197753391484 6.331960071791124 12.512147572686237 0 0 0
2091 1 2.537373533875161 12.51190490894411 6.736646872517541 0 0 0
3399 1 20.035258496463495 12.541487223595084 12.335513874101391 0 0 0
3389 1 5.412752825814564 12.354884331296308 12.494550069737759 0 0 0
126 1 25.069259157964474 11.31502618869837 -0.7696107155644114 0 0 0
52 1 21.892959848603954 4.980912401733844 -0.723815889186767 0 0 0
3242 1 0.771246159278643 2.034443142069216 13.685101587646143 0 0 0
3891 1 2.7999629583192696 0.4380647353120144 15.339994310550992 0 0 0
4609 1 -0.7618589464809978 5.999713404353586 18.46663468810661 0 0 0
3244 1 4.0749690719509495 2.037642471164157 13.900688713495397 0 0 0
3893 1 5.399529469670752 0.6356764179723873 15.430752377620806 0 0 0
3246 1 7.067052275503011 2.104605166176179 13.783160590374953 0 0 0
3895 1 8.367023921729874 0.46441790680959616 15.546029960263308 0 0 0
3889 1 -0.22507300379315298 0.5655011351723538 15.250505637788478 0 0 0
3367 1 25.835032675567714 9.275474549772621 12.628792232248312 0 0 0
3248 1 9.8407150356733 2.3543692641567557 14.043048528431923 0 0 0
3897 1 11.558650358579843 0.6385410630436863 15.572866874479569 0 0 0
3925 1 -0.5559489400752822 3.3896365051071253 15.332816379476736 0 0 0
3250 1 12.65577512788207 2.4222294918407465 13.888653825767527 0 0 0
3899 1 14.343905420191277 0.34579185586162065 15.519987442192328 0 0 0
3252 1 15.7805727765978 2.069418842530658 14.063166638378874 0 0 0
3254 1 18.71787217891892 1.9277154992546168 14.158261579154038 0 0 0
3901 1 17.148446602029434 0.39620406896129423 15.077540703673458 0 0 0
3256 1 21.628681401981872 2.0471250636718117 13.691702928886711 0 0 0
3903 1 20.335291192865398 0.5939146185723381 15.31077332939702 0 0 0
3905 1 23.201944689751386 0.7794881805271325 15.345923127718528 0 0 0
3351 1 2.3653121943284634 9.134057574591294 12.773382422979266 0 0 0
3258 1 24.40007825895213 2.1865721426776505 13.649299938445742 0 0 0
3245 1 5.530834252783096 0.49165991730604697 12.592961126169909 0 0 0
3278 1 0.736325683329031 4.946512169508603 14.073721526065977 0 0 0
3927 1 2.1216844536322808 3.4445240742256287 15.327200151160877 0 0 0
5164 1 21.991520053199448 -0.66272562828788 20.102705158498804 0 1 0
3280 1 3.9074319653767455 4.892610550870024 14.337362953741255 0 0 0
3929 1 5.734449647361939 3.5325448883669583 15.406709060112668 0 0 0
3282 1 6.955328460594819 5.017557525173497 13.861075950824231 0 0 0
3931 1 8.377562845322469 3.959795476764419 15.433795278199465 0 0 0
3284 1 9.858992226801403 5.094414575713684 13.883879218436334 0 0 0
3933 1 11.100842065348257 3.8260459149875894 15.969300141545418 0 0 0
3286 1 12.46325172647094 5.035999824646505 14.380579091445682 0 0 0
3935 1 14.277171254238697 3.438321996998498 15.419311316190822 0 0 0
3288 1 15.877432540223719 5.0252820263538345 14.06503226183637 0 0 0
3290 1 18.80561624601719 5.163929116961997 14.037146412060432 0 0 0
3937 1 17.15927129989576 3.442065622323902 15.661754613945117 0 0 0
3292 1 21.416225754407627 5.31633999419718 13.852577707442773 0 0 0
3939 1 20.10120282780221 3.482703365091141 15.448975092775687 0 0 0
3294 1 24.436125729314465 5.002880198995196 13.814297676012918 0 0 0
3941 1 22.709454557323244 3.6669590002660115 15.12530966220188 0 0 0
5957 1 23.02444674390244 9.414864156769474 24.696670861198648 0 0 0
3314 1 0.8016534802641542 7.85884663976681 14.381173623249133 0 0 0
3963 1 2.561603520755641 6.537187994136195 15.544357566421294 0 0 0
3999 1 2.6198813312316376 9.111663708603443 15.540052336138999 0 0 0
5310 1 24.704954537155487 10.660915890802578 23.23586130384102 0 0 0
3316 1 4.063638714170108 7.634337478134052 13.845770715708957 0 0 0
3965 1 5.163235105155294 6.531356461203778 15.737309646954436 0 0 0
3318 1 6.704627654716771 8.148926006761458 13.92172322918894 0 0 0
3967 1 8.088782183416793 7.039272908317453 15.469320417975698 0 0 0
3320 1 9.783266977857004 7.9294508336036 13.891496445514802 0 0 0
3969 1 11.067093279399705 6.472947031227198 15.570774171034778 0 0 0
3322 1 12.964618290825094 8.038942334178929 14.066488295968162 0 0 0
3324 1 15.820646647221704 7.886567254481957 14.133021739375625 0 0 0
3971 1 14.56540353435191 6.515798099097684 15.66342352418544 0 0 0
3326 1 18.841544942389387 8.01001008839836 14.044512511703324 0 0 0
3973 1 17.32193255943793 6.605509645653198 15.672860219087603 0 0 0
3328 1 21.8894103697724 7.942608039533349 14.058986787556412 0 0 0
3975 1 20.33284166329228 6.240002528470099 15.804492203153554 0 0 0