LAMMPS data file via write_data, version 2 Aug 2023, timestep = 3100000, units = metal

11664 atoms
1 atom types

-0.8309373199177408 52.74442958926967 xlo xhi
-0.8315749216785626 52.74379198750343 ylo yhi
-0.8300075135207692 52.74535939566515 zlo zhi

Masses

1 55.847

Atoms # atomic

650 1 0.9963725092437621 1.861146238003101 1.9734103773477605 0 0 0
649 1 -0.4915911947753986 0.871719083091141 0.44639851437997335 0 0 0
2558 1 0.8289695302033597 -0.46742660738556835 8.045546545340349 0 1 0
651 1 2.4874792566200625 0.34572558987081115 0.40983141529591216 0 0 0
653 1 5.178320816262539 0.9947858886845526 0.14351479343956242 0 0 0
652 1 3.4225946837029513 2.295458465570556 1.9541950836511428 0 0 0
655 1 8.362345542501904 0.8129645396694629 0.1961612238973407 0 0 0
654 1 6.650981025366587 2.5779534248322657 2.0365280637385363 0 0 0
1266 1 6.959472517402029 -0.5775336598442329 1.6804038406724549 0 1 0
657 1 11.02130556398402 1.2558490792446824 0.3384809330006018 0 0 0
658 1 12.574850889825205 2.6344404430553996 2.113199162932079 0 0 0
1272 1 15.493655317228487 -0.6892353710621929 1.4844696836881512 0 1 0
659 1 13.894918304741807 0.9216438048926001 0.25242105577665286 0 0 0
660 1 15.269812391489097 2.4766137472645724 1.8980817249907922 0 0 0
1264 1 4.201556243342649 -0.5097869023774161 1.739418601698226 0 1 0
3206 1 0.42557501550987364 -0.6544573607561004 10.93402754271276 0 1 0
661 1 16.689410573107725 0.9963285560479596 0.3580734843392501 0 0 0
663 1 19.374651138209384 0.9517793525255602 0.45438868063608084 0 0 0
2560 1 4.096976138867721 -0.6680115156046081 7.756918713097342 0 1 0
1276 1 21.26514549075387 -0.4066590892679996 2.1357858119374367 0 1 0
665 1 22.966475003728437 0.6662519470856909 0.6470383412651743 0 0 0
666 1 24.440527904290093 2.428735452670728 1.793704082283924 0 0 0
686 1 0.5803971233199026 5.416856707764661 2.23681018250137 0 0 0
721 1 -0.7505439610006853 6.8324165513746875 0.636228879494281 0 0 0
687 1 2.2520996993195994 4.1049836879014645 0.6655837742296007 0 0 0
689 1 4.903694680211027 3.6758855048338805 0.4186329204621826 0 0 0
688 1 3.839631659089009 5.53799981357116 1.7603828516027384 0 0 0
691 1 8.040207717695974 3.855687914854874 0.49592206195604693 0 0 0
690 1 6.363147403964248 5.226749763009305 1.9705808504593572 0 0 0
656 1 9.747742883812386 2.654452199903273 1.8115475300154817 0 0 0
692 1 9.59907438989928 5.64597826556171 1.9388128865108252 0 0 0
693 1 11.06424192890329 3.865769540959957 0.294649752321005 0 0 0
694 1 12.573591729274355 5.430887564681292 1.754435012594449 0 0 0
695 1 13.963339070364167 3.9585755117069112 0.5095455125995261 0 0 0
696 1 15.414735030012022 5.646260197727711 1.7555044429811284 0 0 0
662 1 18.024326267429547 2.667086935541966 1.838624607001789 0 0 0
697 1 16.53571836566786 4.13889234718694 -0.04815664891258187 0 0 0
698 1 17.93547577649551 5.4614693316994405 1.5367885450042933 0 0 0
664 1 20.96666939328822 2.309220509396164 2.0211232414828735 0 0 0
699 1 19.94859492271586 4.005156702802457 0.48380874960913545 0 0 0
700 1 21.27120402459952 5.274332164135659 2.237722557299878 0 0 0
701 1 22.62587078334588 3.552890199167809 0.6576638320912171 0 0 0
702 1 24.707042200643016 5.268671088337595 1.765201577866963 0 0 0
1914 1 6.869268138413997 -0.4684160382512179 4.517468742630315 0 1 0
722 1 0.9843488667733062 8.21593082163839 2.187432350203404 0 0 0
723 1 2.132213491322576 6.495192066669139 0.4357779629262122 0 0 0
725 1 4.950153489696912 6.839993331556463 0.01612564198720734 0 0 0
724 1 3.7574467902491326 8.17217086961817 1.7886876213838847 0 0 0
727 1 7.913757391136668 7.188944540753049 0.5950050229868551 0 0 0
726 1 6.305980531349941 8.231884518135697 2.047934821477232 0 0 0
728 1 9.693463190773855 8.654330064520511 2.1926373287915526 0 0 0
729 1 11.124565305381443 7.340576446547221 0.3395063380976189 0 0 0
730 1 12.338028132443673 8.509160558887524 1.9780265474580325 0 0 0
731 1 13.565181442439448 7.097993114291657 0.22255942290454755 0 0 0
732 1 15.372956253177406 8.172918667688378 1.4850305814412472 0 0 0
733 1 17.03733888968867 7.020301319478527 -0.12848334305438913 0 0 0
734 1 18.41236687461541 8.041655434253249 1.81159857971104 0 0 0
735 1 19.847716239389616 6.755531771777358 0.3088069432719187 0 0 0
736 1 21.122435151437028 8.253293875192064 1.8365712909109977 0 0 0
737 1 22.79727735938207 6.665233597703479 0.6400375980595987 0 0 0
738 1 24.949209335200653 8.022629276599398 1.809724163058517 0 0 0
758 1 0.9571076276694297 11.453455593944444 1.5591772742010312 0 0 0
757 1 -0.4898396092681708 9.64156957918933 0.7927399492788016 0 0 0
759 1 2.315833722389368 9.71430835012863 0.4692529905237073 0 0 0
760 1 3.8898343633532937 11.096440999976943 1.8251152037097627 0 0 0
761 1 5.353615819918766 9.860755861411397 0.30354816908942706 0 0 0
763 1 8.050201612488232 9.991200220549374 0.4737029603262939 0 0 0
762 1 6.6830254992590055 11.70418034673391 1.7177168228614157 0 0 0
765 1 11.098208342186734 10.026058984205687 0.614296557205267 0 0 0
764 1 9.662011038260985 11.396815231818477 2.051505462524638 0 0 0
766 1 12.704267542127942 11.399915329896908 1.940839524852441 0 0 0
767 1 13.766415100854388 9.977141516748476 0.34023957436843055 0 0 0
768 1 15.539618467214833 11.424067818973294 1.5965763768646446 0 0 0
769 1 17.41532124256092 9.536969637520361 0.1774722451566222 0 0 0
770 1 18.44523324276159 11.223136759214295 1.914528711894445 0 0 0
771 1 19.7679110009919 9.794368726862917 0.43741454804088886 0 0 0
772 1 21.347398078262625 11.113728528648108 1.8235368434035522 0 0 0
3222 1 24.45874919434243 -0.414021305149831 10.55381787082664 0 1 0
773 1 23.00005770135951 9.397728221499614 0.5975568823418784 0 0 0
774 1 24.619616693571167 10.775593816731146 1.9126905812940844 0 0 0
124 1 21.384019097447954 11.207138515808435 -0.7762188981002642 0 0 0
1299 1 2.6076809119370297 0.3222974700379102 3.4806931867639657 0 0 0
1298 1 1.0160629623627178 2.339887421543543 5.071002276284326 0 0 0
3216 1 15.519022117123992 -0.7548872359750579 10.637994137840693 0 1 0
3351 1 2.3386318209524517 9.959367427338378 12.17904764023923 0 0 0
1301 1 5.218300643205535 0.8451930570696542 3.4690954086586583 0 0 0
1300 1 3.4818651084729657 2.16379815457504 4.854708612271003 0 0 0
1303 1 8.27156480976816 0.693428936787081 3.050497282283762 0 0 0
1302 1 7.018328651880705 2.196316371221978 4.659399021821381 0 0 0
18 1 24.413819815084793 2.203654548716076 -0.6710401152677661 0 0 0
1918 1 12.530546061982152 -0.44846864779391993 4.677817944140331 0 1 0
1305 1 11.137778529100073 0.8750588314725598 2.9814813690673763 0 0 0
1304 1 9.561083529484266 2.2778928542649464 4.494565990204831 0 0 0
1922 1 18.21374454098338 -0.7244774430181065 5.034819799404374 0 1 0
1920 1 15.028781037388388 -0.5428123994724809 4.699289143889016 0 1 0
1306 1 12.357736386124682 2.2402532577408865 4.596024525870563 0 0 0
1307 1 13.672027188555843 0.6421420493753454 2.8300841262156027 0 0 0
1308 1 15.069229722401943 2.205574003728689 4.734840189358069 0 0 0
1309 1 16.78467263300528 0.6580381912017959 3.097437731331115 0 0 0
1310 1 18.103659104400933 2.2185896644265584 4.4976020426529555 0 0 0
54 1 24.462799444337833 5.294250662719053 -0.8293895423286017 0 0 0
1311 1 19.482846119327565 0.7791336411179599 3.2901197236185897 0 0 0
1312 1 21.219856221496848 2.3011901983091745 4.822706433466214 0 0 0
1924 1 21.184177573402312 -0.3216867150278193 4.766956915943398 0 1 0
1313 1 23.07199980700179 0.8770184106925041 3.257242258018013 0 0 0
3403 1 25.951222171826835 12.436077874340524 12.249229545781692 0 0 0
1314 1 24.61975130917371 2.5762203123046814 4.769245981740547 0 0 0
1333 1 -0.4702167959430611 3.264908827831035 3.191750253673921 0 0 0
1334 1 1.1298383660998441 5.6788858189502776 4.933639159933042 0 0 0
1335 1 2.1327836588277513 4.009223747676377 3.349655677426962 0 0 0
1337 1 5.060250580632217 3.8744048330581773 3.501897292424477 0 0 0
1336 1 3.630876698346615 5.181453252611497 4.944574089849873 0 0 0
1339 1 8.203629650712148 4.03200740216184 3.3432964303466903 0 0 0
1338 1 6.635130451326443 5.257601198298224 4.981354525843403 0 0 0
1340 1 9.439630072452754 5.484473516031612 4.859835423415596 0 0 0
1341 1 10.937153128136021 4.269879860112508 3.404077254724183 0 0 0
1342 1 12.648839457229348 5.471476585345831 4.800138417556266 0 0 0
1343 1 14.097924775400344 4.117498413811019 3.204151710126527 0 0 0
1344 1 15.403405260932558 5.485898636377895 5.016504849833151 0 0 0
1991 1 13.800559309164012 3.7468888631212263 6.258101217426743 0 0 0
1345 1 16.68269483209453 3.9497605363431605 3.2881160526580153 0 0 0
1346 1 18.10328250777719 5.444603203500748 4.83330805663813 0 0 0
1347 1 19.472780763464527 4.001771946889573 3.4261511612744915 0 0 0
1348 1 21.143459810188386 5.3030239697921076 4.669354844056401 0 0 0
1349 1 22.993127107156056 3.7375769577081224 3.2112362731045803 0 0 0
1350 1 24.173998356165082 5.45846400569898 4.421710364407289 0 0 0
3212 1 9.617716893859088 -0.6622630135920532 10.84381115070685 0 1 0
1370 1 0.9983239244995579 8.264962097912957 5.024964917790276 0 0 0
1371 1 2.63395783849267 7.038865136978587 3.6351190766740435 0 0 0
1373 1 5.15824812450969 6.66764618056023 3.5890902196026913 0 0 0
1372 1 4.102231369113688 8.329565180161095 5.038441713675864 0 0 0
1375 1 7.989891118923284 6.695697583138786 3.2972643019396486 0 0 0
1374 1 6.686813601572544 8.330716192476952 4.9476376494199155 0 0 0
1376 1 9.561268206998431 8.577686904185903 4.885273138096576 0 0 0
1377 1 11.164242575577092 6.883156141580898 3.3207552501830975 0 0 0
1378 1 12.48161329820298 8.049651136178323 4.895976284164398 0 0 0
1379 1 14.04110669450988 7.193270102448141 3.239322702105447 0 0 0
1380 1 15.44280406461992 8.164383102672677 4.946862652253192 0 0 0
1381 1 16.69100507331022 6.844928895148385 3.3953426141704375 0 0 0
1382 1 18.403081396276228 8.338479227779326 4.834291026146038 0 0 0
1383 1 19.810106463252147 6.629743899142688 3.317645904801779 0 0 0
1384 1 21.22940088814332 8.237233484521989 4.749545362089344 0 0 0
1385 1 22.971363848919665 6.911559688665641 3.033150942310356 0 0 0
1386 1 24.759469181214204 8.223708907897338 4.847992970444575 0 0 0
1406 1 1.0324933619512577 10.895539421853895 5.31387578691961 0 0 0
1407 1 2.4538190575938565 9.722547257934615 3.515873026107296 0 0 0
3327 1 20.060684936327355 6.626664704064942 12.43428250888155 0 0 0
1409 1 5.276126308641267 9.791874981766641 3.438790206580351 0 0 0
1408 1 3.7928385353297633 11.341303683047519 5.147567119647441 0 0 0
1411 1 7.807326295517415 9.653960412426697 3.3664787748677893 0 0 0
1410 1 6.3913721222510205 11.383582545104034 4.8239530611394255 0 0 0
1412 1 9.625582563422492 11.062057219546949 5.024882200698993 0 0 0
1413 1 11.243662868467734 10.003675114945313 3.6876101612220715 0 0 0
1414 1 12.803413220029876 11.582033923235267 4.589832361125593 0 0 0
1415 1 14.043125551625458 9.75706461283392 3.478470516488078 0 0 0
1416 1 15.652763203834066 11.176909411703248 4.682596902949555 0 0 0
1417 1 16.955624721850263 9.639791935287139 3.283129975977528 0 0 0
1418 1 18.385943356331065 11.01121239777743 4.913315047032394 0 0 0
2566 1 12.67646629021418 -0.7800187071037727 8.091260068291625 0 1 0
1419 1 19.811814254313592 9.553398091311825 3.356051104233381 0 0 0
1420 1 21.91102575106678 11.139277195170445 4.569242308303682 0 0 0
2718 1 24.588529813641742 10.811373728845425 11.016884105884268 0 0 0
1421 1 22.94784845031816 9.57292886561799 3.2242650660599983 0 0 0
1422 1 24.559034651465563 10.811802430253984 4.525769578763171 0 0 0
1278 1 24.694897849625022 -0.516929596562436 2.0554496573849654 0 1 0
1947 1 2.3580763995866483 0.7788483916704825 6.432469753458356 0 0 0
1946 1 0.6830346463051626 2.1077650182483074 7.936806879422397 0 0 0
16 1 21.53930180865829 2.0153837716628282 -0.7297777328411131 0 0 0
1949 1 5.119852900359112 0.9427794837593544 6.117882406077559 0 0 0
1948 1 3.8525815176684493 2.324974932714449 8.000092546901056 0 0 0
2597 1 5.3168497488582815 0.8617819241043296 9.560849758108738 0 0 0
2562 1 6.664670371934376 -0.6133461979056393 7.909109560466733 0 1 0
1951 1 8.073519118014685 0.5565825373581996 6.402197806558992 0 0 0
1950 1 6.586459132854256 2.4197895680264643 7.788047545687599 0 0 0
2105 1 23.25849621791128 12.463349347107275 6.1870818230003914 0 0 0
1953 1 11.090036748558745 1.0057844690257207 6.242908096584649 0 0 0
1952 1 9.85306656198074 2.4610823153646426 7.63205381499834 0 0 0
2601 1 11.049500826900486 1.0102522268402618 9.200281879197652 0 0 0
3365 1 22.71064031053144 9.122442462318746 12.4675177913529 0 0 0
1955 1 13.714469994162112 0.7734421141045684 6.401380808959432 0 0 0
1954 1 12.693803646725032 2.5006002726251118 7.916111205681078 0 0 0
1956 1 15.428097163520949 2.2138870667977644 7.474226861739012 0 0 0
2570 1 18.519831055683735 -0.6871966884772218 8.063499013301499 0 1 0
1957 1 16.677132780625435 0.6914694330991169 6.209174748777729 0 0 0
1958 1 18.172008169967384 2.3173771023725855 7.352045270555557 0 0 0
2605 1 17.358315672316643 1.0030050378905486 9.28333819087466 0 0 0
2572 1 21.455515652999722 -0.45599192878669753 7.55593899773622 0 1 0
1959 1 19.517812664513475 0.8665514206752511 6.148987654156236 0 0 0
1961 1 23.157944686132563 0.8111733376259513 6.048035249247071 0 0 0
1962 1 24.344895071322913 2.34205492342493 7.628503719982488 0 0 0
2574 1 24.66322847371427 -0.41136462037953603 7.9382894367147525 0 1 0
2609 1 23.015947248271335 1.1668851931414939 9.252088713293311 0 0 0
1405 1 -0.5371644268991201 9.72709735960975 3.675425898294276 0 0 0
1982 1 1.101919650305055 5.792537153775634 8.153202062790722 0 0 0
1983 1 2.4196831423776084 3.6815467605979784 6.550327561359586 0 0 0
1985 1 5.105274236231854 3.299456105156551 6.134232258713054 0 0 0
1984 1 3.7486027348862887 5.382320001015506 7.908782016952031 0 0 0
2633 1 5.33730179072234 3.8160686147546565 9.463564385976056 0 0 0
1987 1 8.05228244319575 3.9498591292817435 6.207889744569331 0 0 0
1986 1 6.830700162809214 5.330384888150962 7.814263428252474 0 0 0
2635 1 8.346201035394845 3.5038808122049794 9.278002588950331 0 0 0
1988 1 9.669830838352652 5.18842252729032 7.833631478478459 0 0 0
1989 1 11.070708608260833 3.7126340849592525 6.131130044494452 0 0 0
2637 1 11.048280228688725 3.632802768209041 9.450570611638598 0 0 0
1990 1 12.430552487900156 5.161333914493325 7.900415672966874 0 0 0
1992 1 15.789789853038108 5.326756676250876 7.66061279681243 0 0 0
2639 1 14.094763630179008 3.9985295005622357 9.378227972126808 0 0 0
1993 1 16.71606175035645 3.6209622721554275 5.9854396651926685 0 0 0
1994 1 18.311638598216792 5.218273103821768 7.542351536668837 0 0 0
2641 1 17.01000743817884 3.5646247223511196 9.01261963709797 0 0 0
1960 1 21.51061464225265 2.6375777287853786 7.4429617348335455 0 0 0
1995 1 19.754589826654662 3.6319720849499193 6.103981650590767 0 0 0
1996 1 21.468186638342683 5.253900958888751 7.784407130490894 0 0 0
1997 1 22.951443819406705 3.9062760478546057 5.91705016719923 0 0 0
1998 1 24.285237601182047 5.158836164982846 7.711167808943891 0 0 0
2103 1 20.17599415181157 12.383593158331891 5.7595756728425584 0 0 0
2018 1 0.9701013509200402 8.142936951870674 8.092417862029038 0 0 0
2019 1 2.6875702008282114 7.062722921323924 6.4852078614478375 0 0 0
2021 1 5.2983478355589195 6.805626420809009 6.607611096904435 0 0 0
2020 1 3.913255170420589 8.450026566333852 8.045019202491464 0 0 0
2023 1 8.312407386770712 6.989824564427068 6.29945886632426 0 0 0
2022 1 6.748296021749025 8.005531828681416 8.037628271990808 0 0 0
2025 1 11.092816989029354 6.679345165851562 6.375333687236853 0 0 0
2024 1 9.833626441794843 8.238416331245569 7.597596006381547 0 0 0
2673 1 11.436393573277133 6.736441951607183 9.374498290056401 0 0 0
2026 1 12.789945871057329 8.595601635205176 7.69879002897212 0 0 0
2027 1 13.832255050527607 6.782813545483099 6.392987732244074 0 0 0
2028 1 15.483713667130864 8.328545169028581 7.786217101900503 0 0 0
2029 1 17.06596166304419 7.077969010042091 6.404025760702972 0 0 0
2030 1 18.549700419451323 8.404657447478009 7.845552290993593 0 0 0
2031 1 20.111114484930376 6.863787428207392 6.254809354009209 0 0 0
2032 1 21.630676758939924 8.064511955515865 7.853956832141083 0 0 0
2033 1 22.930382855687906 6.534403084209164 6.091157675221517 0 0 0
2034 1 24.74326279744006 8.093400646645552 7.614686883451025 0 0 0
2681 1 23.2768823841484 6.733309991403629 9.114258602688682 0 0 0
3291 1 20.158302696729056 4.148773369940192 12.234546608841358 0 0 0
2053 1 -0.6196442524736656 9.603008359439405 6.686829576286195 0 0 0
2054 1 1.0056007793339667 11.46846480759644 7.977754039987486 0 0 0
2055 1 2.466179978041013 9.358392954308375 6.500225972789554 0 0 0
2057 1 5.505315748821672 9.994827799747698 6.691607103798086 0 0 0
2056 1 3.47334880562365 11.15645523541844 7.8262729081090505 0 0 0
2059 1 7.943756107245042 9.983713319236319 6.5366138163260885 0 0 0
2058 1 6.764647874800065 11.502722751809483 8.125935494082418 0 0 0
2707 1 8.244864274425707 9.617951207291613 9.450467288623855 0 0 0
2061 1 11.320005728655886 9.961896171980884 6.372930602428323 0 0 0
2060 1 9.80940554722515 11.21625020405831 7.747663149036356 0 0 0
2709 1 11.060043211793596 9.67130590338033 9.215199104540071 0 0 0
2568 1 15.41089524673091 -0.4067080843635755 7.857514369419054 0 1 0
2062 1 12.830582963915298 11.02337873222219 7.938371396427737 0 0 0
2063 1 14.2588310861754 9.864109654836254 6.322194067442072 0 0 0
2064 1 15.614497509617596 11.186770871314291 7.8615323250355225 0 0 0
2065 1 16.79700810287716 9.701391740279387 6.396742387174593 0 0 0
2066 1 18.711730360643802 11.065979238184829 7.784334634140446 0 0 0
2713 1 17.233712315029983 9.693746715355383 9.279075167998176 0 0 0
3214 1 12.846375932684053 -0.2981479778039452 10.91468997465714 0 1 0
2067 1 19.994800617621298 9.611756789719637 6.372354159306092 0 0 0
2068 1 21.689780186942876 11.125787167271255 7.728306194857316 0 0 0
3220 1 21.57925757866241 -0.6319728071900376 10.650734613481504 0 1 0
2069 1 23.20197904651909 9.88980865117787 6.403670470707126 0 0 0
2070 1 24.684104937964968 10.970366866633759 7.907212186713741 0 0 0
2717 1 23.22734512986528 9.620768878657783 9.164105282800941 0 0 0
2701 1 -0.4193688116241387 9.99064697411137 9.318571066143539 0 0 0
2595 1 2.6536868702588072 0.7037743303151978 9.413924728492123 0 0 0
2594 1 0.7778719435871282 2.2225134518860834 10.897417167884576 0 0 0
1916 1 9.906188461508048 -0.5821788463869049 4.442756694354924 0 1 0
3399 1 20.323334817318436 12.296740411369207 12.243506159113808 0 0 0
3243 1 2.6680608521179567 0.8658593942344677 12.45392322489408 0 0 0
3245 1 5.441229355425389 0.7905072767631129 12.53106929042493 0 0 0
2596 1 3.930324384938584 2.283095400306481 10.869243913711008 0 0 0
2599 1 8.35405100076939 0.8131227365779079 8.996284226682452 0 0 0
3319 1 7.939798949105073 6.717333180923221 12.390755740435216 0 0 0
2598 1 6.902161234795839 2.185742995073478 10.828944107026059 0 0 0
2747 1 14.091402741407357 12.52779236946281 9.368098602959483 0 0 0
2600 1 9.517709500462628 2.0421562787799488 11.036649599594874 0 0 0
3359 1 14.261470491461596 9.623924157859351 12.411136472659088 0 0 0
2603 1 14.35804095722622 1.0734235753853614 9.268942541029055 0 0 0
3293 1 23.06525386234882 4.042823625933358 12.131399976507431 0 0 0
2035 1 25.87260077444463 6.392245269136116 6.157142278281011 0 0 0
3218 1 18.952274371217644 -0.5629205392203662 10.740666270469458 0 1 0
2606 1 18.434905430083578 2.520627032613635 11.026490146561443 0 0 0
3259 1 25.818329752878242 0.8415484113103873 12.02110305775283 0 0 0
2607 1 19.895054587307495 1.488913817682076 8.882489826921297 0 0 0
3255 1 20.224964311184614 0.7276322436070033 12.488349580715457 0 0 0
2608 1 21.103804401265833 2.5025048172098003 10.929686858363866 0 0 0
3329 1 23.01978824363008 6.67283478394638 12.14175643898817 0 0 0
3313 1 -0.7482196000857206 6.592768463267273 12.33561187763714 0 0 0
3391 1 8.499789074181551 12.515385267059955 12.410859477080784 0 0 0
2610 1 24.657121027120674 2.742412906889818 11.008776588422045 0 0 0
1297 1 -0.6292307887152848 0.6312959886558158 3.244353913588549 0 0 0
3257 1 22.95065938065728 0.9613890516136292 12.094313552253176 0 0 0
38 1 0.44243666004538906 5.081178116880039 -0.7695175909268335 0 0 0
2630 1 0.956582623135801 5.485126305222138 10.74348637198818 0 0 0
2631 1 2.141574536891278 3.76057174663519 9.577730269827013 0 0 0
3253 1 17.083833761196363 0.3756277159446899 12.247362653018168 0 0 0
2632 1 3.5023147024010184 5.13350357528256 11.198904272366745 0 0 0
630 1 24.760180471585013 -0.5745706177609798 -0.5332424919728677 0 1 0
2634 1 7.088130926203644 5.393605503976858 10.576618657669064 0 0 0
3349 1 -0.49984808332540265 9.783811458016588 12.222765039859006 0 0 0
3283 1 8.429579916241547 3.8097296469723725 12.434850411577708 0 0 0
2636 1 9.89813262074048 5.223824648445847 10.929450111492931 0 0 0
2629 1 -0.48356099575166717 3.742124784185033 9.478668142999604 0 0 0
2604 1 15.733099350492953 2.43472142797674 10.733020104805945 0 0 0
2602 1 12.713126015984772 2.3302289602948876 10.910187786182778 0 0 0
2638 1 12.630354033225196 5.326017621705915 10.80814930729814 0 0 0
2640 1 15.95050024286461 5.143196665188944 10.527191139520966 0 0 0
2642 1 18.50843603023547 5.474476707096883 10.492153353261331 0 0 0
3289 1 17.33329947433983 4.233051430267839 12.45303232384857 0 0 0
2643 1 19.947288712945284 3.978987089324187 9.333450702521764 0 0 0
2644 1 21.618387118230615 5.390844311509713 10.403002576427781 0 0 0
3285 1 11.00848356357142 3.77594045604201 12.378488819810325 0 0 0
2751 1 20.23458575183788 12.50590348096135 9.135000180745118 0 0 0
2645 1 22.87995593120001 3.681366390666371 9.232381083186128 0 0 0
2646 1 24.674818093577127 5.602419029060144 10.794928351952306 0 0 0
2564 1 10.014209983175192 -0.6196141739512223 7.657172382801589 0 1 0
2743 1 8.705390019822675 12.536244403842266 9.380702118788642 0 0 0
3281 1 5.4675666282463045 3.6278169367749777 12.288395715936742 0 0 0
2667 1 2.5885935067879755 6.870840630436832 9.7216847950971 0 0 0
2666 1 0.8795530589893976 8.25529340253819 11.065560592609767 0 0 0
1369 1 -0.6759338666595343 6.983386172783044 3.4972959584364114 0 0 0
2669 1 5.293557710318526 6.745066271514448 9.395927493648406 0 0 0
2668 1 4.119836320793372 8.221315182088528 11.001782644356856 0 0 0
3317 1 5.271496667524711 6.733639659404127 12.402722249919501 0 0 0
2671 1 8.790964625983824 6.720337157011996 9.410431603229071 0 0 0
2670 1 6.995703663594139 8.361932450243664 10.93036068659691 0 0 0
2672 1 9.821802561775218 8.1778584097189 10.964230609128244 0 0 0
2753 1 23.35097447775939 12.346221231437113 9.645305538253465 0 0 0
1981 1 -0.10252861514566658 4.1873844835062775 6.71603613371759 0 0 0
2675 1 14.106914664363252 6.714292735383469 9.234422439487425 0 0 0
2674 1 12.523269007259657 8.184991365549987 11.029290907866843 0 0 0
2676 1 15.621184526338919 7.970348919614899 10.909986879564249 0 0 0
3325 1 17.14689012760561 6.840395718438058 12.371498747945967 0 0 0
2677 1 17.03493336797581 6.866514366122453 9.160444844742013 0 0 0
2678 1 18.65451254032711 8.164230984317754 10.759200530657363 0 0 0
2679 1 19.98472535641263 7.03336211584733 9.133660436550135 0 0 0
2680 1 21.71900854923486 8.091208810944366 10.438096987160364 0 0 0
2682 1 24.64103104707362 8.220330459294928 10.957195163171718 0 0 0
1926 1 24.567375991350886 -0.7382366241931351 4.599644446862255 0 1 0
2702 1 1.0132258310701736 11.794223599356647 10.86741113821305 0 0 0
2703 1 2.2325490845659064 9.7492830172856 9.788299562539482 0 0 0
2704 1 3.8709354072248887 11.653012309816024 11.158587872874492 0 0 0
2705 1 5.242381152287671 9.931452287719136 9.580764440397685 0 0 0
2706 1 7.104074891170495 11.303976039962624 10.781621923409103 0 0 0
3361 1 17.441447437771856 9.563775659139722 12.304817404895891 0 0 0
2708 1 10.1301522785469 10.944638779552568 10.989520944418336 0 0 0
2710 1 12.847906492201972 11.095383129604183 11.033291060770892 0 0 0
2712 1 15.881345619556559 11.148832224984195 10.92043303838999 0 0 0
2711 1 14.211442351670545 9.500257858268089 9.532622292700626 0 0 0
3287 1 14.409158939315954 4.048787178472863 12.082213335531828 0 0 0
3249 1 11.34199920596651 1.005709903214214 12.471637183615707 0 0 0
2714 1 18.841570689783506 10.985505953410096 10.746273997740351 0 0 0
1945 1 -0.6100379265848174 0.5921715257787175 6.200374339733076 0 0 0
3363 1 20.217495029616128 9.50713229798254 12.09761285167945 0 0 0
2715 1 20.259334724269852 9.578013823487762 9.182059958784771 0 0 0
2716 1 21.723325238816596 10.737863004641456 10.671973959127495 0 0 0
2017 1 -0.6323680430040239 7.053808445756163 6.659349514148434 0 0 0
3353 1 5.467644923065982 10.070605194321304 12.506778215367422 0 0 0
3279 1 2.2883704035694628 3.2952978146340044 12.305624464236704 0 0 0
1270 1 12.173342535321842 -0.6869035864830709 1.5267232041533334 0 1 0
809 1 23.224173133681017 12.518561448145817 0.30761688338920434 0 0 0
1449 1 10.889534434633884 12.559118890040459 3.6545765938183292 0 0 0
1447 1 8.135283075250578 12.560982189733679 3.4574243908199698 0 0 0
1441 1 -0.5217364071471102 12.559457942044826 3.86302284337125 0 0 0
1443 1 2.0327740367041316 12.537699869478304 3.740425714547861 0 0 0
1268 1 9.594013377892168 -0.8243475045160551 1.7968287223089106 0 1 0
3247 1 8.289965992171794 0.38481707935417075 12.469068158518855 0 0 0
3277 1 -0.7096306212121145 3.5161084754666705 12.501257849221368 0 0 0
120 1 15.502360939087502 11.418023697036606 -0.7934143476167677 0 0 0
3242 1 0.8630963881983553 2.0369858071191382 13.740673783611467 0 0 0
3860 1 10.14520113728318 -0.4328880925666643 13.91331225335855 0 1 0
3891 1 2.398086004001469 0.7489409855020395 15.166811199975257 0 0 0
3893 1 5.654897783225543 0.6311414854159481 15.490808551743793 0 0 0
3870 1 24.74010429897962 -0.6003071006519094 13.479475841033022 0 1 0
3895 1 8.368220058893993 0.5024801382980557 15.222608302735598 0 0 0
3246 1 7.228127388170712 2.221108673945108 13.760975780199669 0 0 0
5347 1 25.94946378176442 12.44557769073016 21.39141606221808 0 0 0
3897 1 11.490576975876902 0.8056471996314765 15.372329843071082 0 0 0
3248 1 9.670211889160882 2.0022674657326074 13.944798368915164 0 0 0
3250 1 12.726308091924547 2.7618674195913337 13.789959966300437 0 0 0
3899 1 14.189956285393611 0.9991714904764799 15.201751663700499 0 0 0
3252 1 15.874995341882066 2.5340143740074708 13.488113571956928 0 0 0
4537 1 -0.5352519809081958 0.5975240788120944 18.316246709192555 0 0 0
3854 1 0.9311402585896504 -0.7047557558209832 13.903167740897167 0 1 0
3901 1 17.108541767563615 1.1095427636740334 15.180606986305143 0 0 0
3254 1 18.56710345354237 2.49365426919635 13.67305898612543 0 0 0
6452 1 9.348444551547276 -0.31745937011125114 25.554810865254012 0 1 0
3903 1 20.21684378332305 1.0215125774873277 15.149726991597307 0 0 0
3315 1 2.541398318174477 6.99811422776476 12.616889821431988 0 0 0
3905 1 23.06680280853541 0.4685629772064934 15.101105699997326 0 0 0
3258 1 24.76742950666531 2.3706268841221743 13.745073651338316 0 0 0
4051 1 25.712573062130534 12.218830897104672 14.693797652326806 0 0 0
4504 1 3.487048086298368 -0.6292183778760498 16.851531083864803 0 1 0
3278 1 1.2324827845641821 5.142948115780506 13.558461564435836 0 0 0
3244 1 3.864329252706444 2.2893810551764253 14.052524322767884 0 0 0
3927 1 2.1808250383601244 3.7632332893257434 15.32819010908004 0 0 0
3929 1 5.50236599470367 3.744021925889424 15.347317603376961 0 0 0
3931 1 8.27168957566293 3.9046271591372195 15.1788042815371 0 0 0
3282 1 6.7295594243525105 5.281577423650156 13.989005182441185 0 0 0
3284 1 9.7406857201768 5.32576216422601 13.927480768948227 0 0 0
3933 1 11.095421836249981 3.646432157969712 15.400566000223126 0 0 0
3286 1 13.006895451019883 5.1557561473234 14.01849938509462 0 0 0
3935 1 14.293808156345792 3.8400788138564312 15.666306799099178 0 0 0
3288 1 15.723969373432663 5.3069084247294915 14.126650695750394 0 0 0
3937 1 16.931936435817107 3.534306541017501 15.375279569003371 0 0 0
3290 1 18.308531388992975 5.5976629868281345 14.137533304621181 0 0 0
4514 1 18.60250572435779 -0.44311572608732575 16.55742747583392 0 1 0
3256 1 21.27529586167636 2.5394317713706918 13.649929172139187 0 0 0
3292 1 21.81430531895559 5.449736321473907 13.91068421517431 0 0 0
3939 1 19.942878396122712 3.827709913307288 15.44094602074422 0 0 0
3294 1 24.34283852736445 5.261005947578979 13.638961852903215 0 0 0
3941 1 23.186173420676507 3.746248668340529 15.259384895351388 0 0 0
5806 1 12.603897089614403 -0.7807233006381296 23.326792285917268 0 1 0
3314 1 0.8134338579081559 8.362676869100076 13.696621132964477 0 0 0
3963 1 2.381157539084416 7.233238411309948 15.095972584100284 0 0 0
3280 1 4.052330807331583 4.983647583177789 13.888382906448662 0 0 0
3316 1 4.0216503956723155 8.649589803270235 13.750831453404672 0 0 0
3965 1 5.083307017753651 7.013744522474469 15.434700910101945 0 0 0
3318 1 6.848782923592423 8.155897838763961 14.133249449056422 0 0 0
3967 1 8.210605599567156 6.484810513687856 15.24256471241134 0 0 0
3320 1 9.727031359500094 8.128474467749491 13.839016720520563 0 0 0
3969 1 11.115288221651124 6.715843153301658 15.4343841805923 0 0 0
3322 1 12.876898129811282 8.377585406337602 14.010186622151386 0 0 0
3971 1 14.16995084364029 6.7770148019540475 15.296550138689252 0 0 0
3324 1 15.8772770206633 8.13158586054192 13.777054642710914 0 0 0
3326 1 18.730794996447887 7.915371193362509 14.108243949863962 0 0 0
3973 1 16.957746389792955 6.869508483033458 15.739223924152974 0 0 0
3328 1 21.343315834041736 7.9371280984734565 14.252851672415218 0 0 0
3975 1 20.003658672099778 6.489747016425213 15.856510758066939 0 0 0
3323 1 14.341908805152528 6.551557808569923 12.603105916418253 0 0 0
3330 1 24.557330825881504 7.978323930157657 13.464220604849153 0 0 0
3977 1 23.27708428225757 6.73333516337836 15.513032570156668 0 0 0
4645 1 -0.7044926839694586 9.928110795874426 18.35456325497759 0 0 0
3925 1 -0.730834630340011 3.703642478018219 15.179680470188003 0 0 0
5808 1 15.91980649219316 -0.4997996040509594 23.08311052723967 0 1 0
5166 1 24.482494754161582 -0.6512164780710777 20.01925174424492 0 1 0