LAMMPS data file via write_data, version 2 Aug 2023, timestep = 300000, units = metal

11664 atoms
1 atom types

-0.1037212282747042 52.017647499447804 xlo xhi
-0.10372432618861538 52.01764440153444 ylo yhi
-0.1037189404680312 52.01764978725471 zlo zhi

Masses

1 55.847

Atoms # atomic

2 1 1.344565843256579 1.4820770117484081 1.2728761355027864 0 0 0
687 1 2.775219008655578 2.858073941983658 2.6950999609759516 0 0 0
651 1 2.7175437219206726 -0.08023899957192782 2.7300225998755767 0 0 0
4 1 4.213827255550878 1.3458111703593874 1.320601579742316 0 0 0
689 1 5.64851997318863 2.8143482402352697 2.7396563930749456 0 0 0
653 1 5.621817954183652 -0.032919902367090845 2.836353933196105 0 0 0
1961 1 23.010050168154603 0.010946498118542536 8.492129851404355 0 0 0
6 1 7.073526287399063 1.354873128181193 1.3141003225194523 0 0 0
691 1 8.514042109543428 2.8529011779167948 2.71078425570787 0 0 0
1311 1 20.06605742290006 -0.05368190573418019 5.583976449145569 0 0 0
1303 1 8.496362016335848 0.021155642459135038 5.580843205649169 0 0 0
8 1 9.972382092916238 1.466591170656358 1.2529417432662673 0 0 0
657 1 11.447286554508441 -0.0490828496748588 2.6531361310522525 0 0 0
693 1 11.416165315909724 2.9177144036559777 2.6602021699844083 0 0 0
10 1 12.796186427190852 1.4455264229762104 1.2368888845968435 0 0 0
2701 1 -0.050926670341425506 8.719234668528673 11.34608933427515 0 0 0
12 1 15.76154568939789 1.3798156569573576 1.2484006148050135 0 0 0
659 1 14.353607467018511 -0.01658588511078493 2.750946298691619 0 0 0
695 1 14.392433947598494 2.9437256635561733 2.6585674402974284 0 0 0
14 1 18.65457677342581 1.3603526453333563 1.236936912410919 0 0 0
661 1 17.18781961411031 -0.049230022913191215 2.7005488741104973 0 0 0
697 1 17.24739759433889 2.7349728392879675 2.689027473176574 0 0 0
16 1 21.58873095279783 1.366228736099182 1.286080764588675 0 0 0
663 1 20.047998407334475 -0.039772093463653874 2.6547825623101984 0 0 0
699 1 20.143729951641834 2.8475357427362935 2.669329273298916 0 0 0
2753 1 22.990394060806185 11.561685506157302 11.370553902678475 0 0 0
18 1 24.49405339583343 1.4388814287367981 1.2890827465035066 0 0 0
2070 1 24.4739656298252 10.177208462478859 9.933014919394843 0 0 0
2683 1 25.95322926349 5.868604382481717 11.443521071405796 0 0 0
701 1 23.077795731509333 2.864814411205061 2.6731041203531634 0 0 0
38 1 1.3687828041701458 4.346553921774181 1.2628388846482295 0 0 0
723 1 2.801011876397027 5.726782880211063 2.8176312032132165 0 0 0
40 1 4.300687567768294 4.222256448799073 1.2377251142442012 0 0 0
725 1 5.65757576053716 5.6886155316579385 2.785101490146469 0 0 0
42 1 7.152531877229437 4.307482842294142 1.2841901920557313 0 0 0
727 1 8.606935579235394 5.711506861844619 2.754287333765389 0 0 0
1299 1 2.750326594484846 -0.03858944323714297 5.705401878552146 0 0 0
44 1 10.021159988617665 4.338709742936436 1.279031477967493 0 0 0
729 1 11.527938867641605 5.673776326180452 2.6519504230023205 0 0 0
46 1 12.918866348230992 4.3386034847146195 1.1938843814881441 0 0 0
48 1 15.903437489996616 4.342423660503739 1.271096435536006 0 0 0
731 1 14.397853254692608 5.783146397188701 2.7218999274707016 0 0 0
50 1 18.631607286783343 4.327595201331997 1.274867790369307 0 0 0
733 1 17.22577789659762 5.781927358994304 2.755353400392018 0 0 0
52 1 21.725064659978603 4.292204067899366 1.2332617655781022 0 0 0
735 1 20.19506469220957 5.799707194154229 2.6362706057198695 0 0 0
54 1 24.5477376360758 4.219126616377773 1.2628698483415786 0 0 0
737 1 23.006598787863854 5.745678502906519 2.6855757605303956 0 0 0
74 1 1.2363483928268688 7.181958391335088 1.2387770459978584 0 0 0
759 1 2.7621058614169725 8.62560091467145 2.7550874737581674 0 0 0
76 1 4.222961137227434 7.153583832067947 1.3326022421247299 0 0 0
761 1 5.707151887276053 8.573785270332827 2.719144413766525 0 0 0
2607 1 20.128499773993987 -0.001682500033879819 11.297070303411068 0 0 0
78 1 7.149265761998041 7.155366539414984 1.1987868785644331 0 0 0
763 1 8.561673050543044 8.593302859058497 2.715284422022947 0 0 0
655 1 8.599068946858814 -0.04762203375911156 2.6226268006301026 0 0 0
80 1 10.05060761382337 7.200938910426922 1.1969720344748849 0 0 0
765 1 11.414542354025588 8.770906702921728 2.6761471637829426 0 0 0
82 1 13.02383779569258 7.3082000014904445 1.2069232146280116 0 0 0
84 1 15.850626494155708 7.196811101021593 1.2838190057467935 0 0 0
767 1 14.298220854045098 8.701646667787998 2.725943066269016 0 0 0
86 1 18.633096848778457 7.209120004675304 1.2502854303072286 0 0 0
769 1 17.232339136111886 8.653221080982524 2.7586927468111355 0 0 0
88 1 21.665642675749112 7.210291582443274 1.1991352396003898 0 0 0
771 1 20.174265746839822 8.665978649951604 2.677918808196755 0 0 0
90 1 24.47377192207354 7.137674180248543 1.3157630003799157 0 0 0
773 1 23.000008285058115 8.74202258430497 2.692052335992081 0 0 0
775 1 25.913316072306568 8.660290812272711 2.7076927896891583 0 0 0
110 1 1.4232109716425438 10.138189040686477 1.253476412231002 0 0 0
795 1 2.8028020144203607 11.55904379908 2.6960915141159534 0 0 0
2089 1 -0.1029428808531776 11.6364100402045 8.40348855705256 0 0 0
112 1 4.291028023974262 10.032030060869335 1.3335277150667093 0 0 0
797 1 5.7300279782803685 11.523080338105984 2.638741178413063 0 0 0
114 1 7.140998199510942 10.105906136289173 1.1827712068990306 0 0 0
2609 1 23.06901995975262 -0.012151202185052057 11.352429159150697 0 0 0
799 1 8.53494706830385 11.575838173632365 2.6538994694338798 0 0 0
116 1 10.077231901864042 10.175104870984981 1.1767890925234827 0 0 0
801 1 11.426954110121471 11.578624003066665 2.692746849232717 0 0 0
118 1 12.957041151277044 10.129353776042722 1.2534458435089983 0 0 0
120 1 15.86896749095377 10.182401692449025 1.2849472825502566 0 0 0
803 1 14.35957595115305 11.685431545808111 2.7000952259550983 0 0 0
122 1 18.650053370545674 10.110484983985188 1.2560004627175239 0 0 0
805 1 17.371044002420224 11.630197179562089 2.7520803433153835 0 0 0
124 1 21.56660016019822 10.08633060730619 1.1897024715199283 0 0 0
807 1 20.141010388012223 11.525762051809396 2.7261369544473952 0 0 0
126 1 24.561684577455516 10.121192323324461 1.237029655460808 0 0 0
809 1 22.97083331561487 11.495225501872756 2.7404406230804748 0 0 0
2718 1 24.598262063974715 10.183287439446636 12.774693502021474 0 0 0
2107 1 25.905749175133554 11.612503792285974 8.471994969122663 0 0 0
650 1 1.361448945077582 1.3555267158306261 4.169190151877375 0 0 0
1335 1 2.7680183890817363 2.9123302869315633 5.653960134845898 0 0 0
2751 1 20.129478536768655 11.603781629765994 11.48099950492058 0 0 0
652 1 4.205995170111632 1.3706094252715812 4.2860763214124535 0 0 0
1301 1 5.685473693863164 -0.030636181469215942 5.665077120875862 0 0 0
1337 1 5.669360189617719 2.8957690356961194 5.566500502205469 0 0 0
654 1 7.111744384597997 1.3904235310006383 4.2329378241856235 0 0 0
1339 1 8.597243918616853 2.765993126930099 5.584939691853568 0 0 0
656 1 10.001037870769842 1.4283864612239958 4.077654961020541 0 0 0
1305 1 11.360096048718576 0.03421986039750874 5.550732090322817 0 0 0
1341 1 11.417931452127213 2.824261183417917 5.562584109367999 0 0 0
658 1 12.880945909202472 1.3694192015517765 4.183130000700224 0 0 0
660 1 15.713822054238157 1.502424017146728 4.169667631706327 0 0 0
1343 1 14.359091941096606 2.848705576638973 5.711936350363726 0 0 0
1307 1 14.296349361422365 -0.08369792558388035 5.566659882539206 0 0 0
662 1 18.745893082465894 1.383381149192378 4.128595703625337 0 0 0
1345 1 17.323902913023634 2.831525350687278 5.538041662826191 0 0 0
1309 1 17.219117343377647 -0.019023137801254905 5.482575148467191 0 0 0
664 1 21.57598669004834 1.3780480879045123 4.157429331925939 0 0 0
1347 1 20.101637516505104 2.934056071299953 5.539021570363842 0 0 0
666 1 24.56052568880359 1.4364290395002581 4.066051067083006 0 0 0
1313 1 23.093382620526068 0.14839186085674294 5.563174657512187 0 0 0
1349 1 23.023205398171797 2.845333114692529 5.5545381887078635 0 0 0
2068 1 21.47324416968641 10.097184497009787 10.020062724674677 0 0 0
686 1 1.3122223924661751 4.3598241062730745 4.198344908882446 0 0 0
1371 1 2.744086996087691 5.816784585530442 5.594030687449045 0 0 0
2716 1 21.599325335595765 10.0984771309467 12.770946115891554 0 0 0
688 1 4.216866948727932 4.309300044216427 4.191383996094218 0 0 0
1373 1 5.659223453303468 5.7819296086641145 5.534257326534313 0 0 0
690 1 7.141653072307643 4.265822224202338 4.207896018501189 0 0 0
1375 1 8.536834347545453 5.700727403330393 5.698517014880314 0 0 0
692 1 9.998348680311626 4.329775495852986 4.229405183219374 0 0 0
1377 1 11.466135834792926 5.698059133023972 5.637379777786191 0 0 0
694 1 12.882383723159084 4.2058535525538 4.1261542964752085 0 0 0
696 1 15.809861938637576 4.255861138041398 4.156413478649463 0 0 0
1379 1 14.254155640785585 5.6683891740343375 5.595269902217701 0 0 0
698 1 18.714475265510174 4.358397320617435 4.044645572999111 0 0 0
1381 1 17.36606645452585 5.707666442952132 5.600242418143816 0 0 0
700 1 21.6823476206876 4.3308160174925465 4.151610796706918 0 0 0
1383 1 20.13706278233907 5.787364944880931 5.628323715266129 0 0 0
702 1 24.455487989724652 4.245810502763735 4.116329774667767 0 0 0
1385 1 23.15005016578855 5.769282663359373 5.64816743175966 0 0 0
1387 1 25.93545052443154 5.808457816881191 5.510484388198193 0 0 0
722 1 1.2827656542756116 7.237898574883439 4.170680215518112 0 0 0
1407 1 2.8152657459966486 8.678877335187357 5.601616411547562 0 0 0
724 1 4.183441604439849 7.260881018594317 4.172527168165114 0 0 0
1409 1 5.762452012497459 8.631830798213416 5.580575203000671 0 0 0
726 1 7.20058986210161 7.145190666183824 4.1530727130587275 0 0 0
1411 1 8.510519084197197 8.50622145904722 5.712347769436589 0 0 0
728 1 10.018376390213616 7.144151758207163 4.219416041961793 0 0 0
1413 1 11.418875404866569 8.61069923473074 5.636856921671502 0 0 0
730 1 12.970415164871659 7.270665577023734 4.121634939137442 0 0 0
732 1 15.821523925500975 7.12002549806356 4.181568569189755 0 0 0
1415 1 14.359475276053418 8.666459479834963 5.548112803413238 0 0 0
734 1 18.82360437559948 7.217638439597462 4.151315673726463 0 0 0
1417 1 17.236072243416878 8.670075630206972 5.6324525466243 0 0 0
736 1 21.60044297498589 7.257333000204097 4.052932045443002 0 0 0
1419 1 20.18570271675159 8.575076333022388 5.622047504405877 0 0 0
738 1 24.453191769581405 7.1948368272301915 4.116796673090876 0 0 0
1421 1 22.999413690971693 8.682093135063056 5.644056787128535 0 0 0
758 1 1.410152102075602 10.063235823711768 4.129447159312005 0 0 0
1441 1 -0.062153787236391526 11.659215935752352 5.544445767538568 0 0 0
1443 1 2.6659854733388855 11.612096221158614 5.519175946961917 0 0 0
760 1 4.273949454043048 10.123833936956594 4.211958744252027 0 0 0
1445 1 5.733858452537173 11.570779024975892 5.584528014320037 0 0 0
2035 1 25.869796413309935 5.688233786644231 8.445411987823498 0 0 0
762 1 7.227004301158868 10.06122974120597 4.158518693029534 0 0 0
1447 1 8.575003167459768 11.5649154820846 5.461636346212148 0 0 0
764 1 9.960046259461516 10.1432063975557 4.101164916230739 0 0 0
1449 1 11.374342385210952 11.648087255965532 5.598960393075405 0 0 0
766 1 13.005750634131246 10.16372499888982 4.187990050259586 0 0 0
768 1 15.82818062897171 10.13497738789956 4.130384514838133 0 0 0
1451 1 14.411684028508638 11.641115780084316 5.558460394550291 0 0 0
770 1 18.78939470628238 10.051350306746198 4.086204252052199 0 0 0
1453 1 17.285598157552936 11.533865195543019 5.6419154385563575 0 0 0
1405 1 -0.09120554688767868 8.669216810607107 5.647406646341975 0 0 0
772 1 21.552504397796895 10.041232299535762 4.188076940043891 0 0 0
1455 1 20.102275538713723 11.463686034264823 5.610513470051155 0 0 0
1423 1 25.87021614459241 8.6012210493984 5.479916281831306 0 0 0
2749 1 17.14796533013961 11.495037928218258 11.301973482966593 0 0 0
774 1 24.43558263609841 10.11180337597046 4.129124557787451 0 0 0
1457 1 22.919177606363693 11.495979690154694 5.654103994555898 0 0 0
1947 1 2.8039828066143144 -0.05424660800284226 8.456269582510313 0 0 0
2066 1 18.725030279243487 10.112188563334314 9.974301312992905 0 0 0
1298 1 1.3803278233519467 1.4857270645673077 7.039838285276956 0 0 0
1983 1 2.7758187455258776 2.919121510820656 8.500801241679008 0 0 0
2714 1 18.641091478833943 10.163477453121072 12.840563639329481 0 0 0
1351 1 25.895570233721244 2.8629258394304555 5.554705331129306 0 0 0
1300 1 4.2195926924222595 1.4960884281588676 7.059063081107042 0 0 0
1985 1 5.676735929840984 2.943797469159686 8.480663430376255 0 0 0
1951 1 8.533614924454255 -0.036634045902825915 8.43954332180465 0 0 0
1302 1 6.998635069886202 1.468469111303142 7.063807604157827 0 0 0
1987 1 8.537147055131136 2.858354666865984 8.446663088952047 0 0 0
1304 1 10.029113605787176 1.4802127668035976 7.104275498227623 0 0 0
1953 1 11.469787962981187 0.0019697388656216286 8.460221374336175 0 0 0
1989 1 11.485172194833408 2.86068230375776 8.535333964470642 0 0 0
1306 1 12.929148222668351 1.392683003584752 7.039772611035528 0 0 0
1308 1 15.890969588580473 1.4538305840489263 7.015028907307483 0 0 0
1955 1 14.456460348605074 -0.01439617291735723 8.46085046931162 0 0 0
1991 1 14.415885837762978 2.8732901717535255 8.389060100753742 0 0 0
1310 1 18.71282802092655 1.3902020985145667 7.022293298506575 0 0 0
1957 1 17.26186619887662 -0.05039372423694075 8.483360462740803 0 0 0
1993 1 17.25733145913456 2.8637590352392164 8.472868224575445 0 0 0
1312 1 21.465993038265324 1.4760932540746563 6.971488855563445 0 0 0
1959 1 20.131086370283093 -0.04288010900269986 8.378478566271317 0 0 0
1995 1 20.14209242116993 2.921614925486116 8.49257485740843 0 0 0
1314 1 24.46858328432464 1.451905176327032 7.052709502639536 0 0 0
1997 1 23.058212721156885 2.895548878492793 8.548695814830385 0 0 0
793 1 -0.10212278907678751 11.61207929447996 2.667300941020938 0 0 0
1334 1 1.3134792223998528 4.347537993733413 6.931758341303251 0 0 0
2019 1 2.76039066871157 5.781951154561277 8.555861632774512 0 0 0
1336 1 4.1648413704251865 4.413467261523937 7.0868494607012495 0 0 0
2021 1 5.689583651510878 5.7514434858851065 8.499255200081876 0 0 0
1338 1 7.0680415955665765 4.329448786803969 7.033185372413025 0 0 0
2023 1 8.526332961590926 5.776038690106483 8.548637109939497 0 0 0
1340 1 10.084462035108135 4.2723120049233545 7.009265895760615 0 0 0
2025 1 11.525379348058967 5.679759251895089 8.459207752934134 0 0 0
1342 1 12.894462800193267 4.256632000413477 7.0383837835683885 0 0 0
1344 1 15.811385201746154 4.31465539591301 6.985209807292087 0 0 0
2027 1 14.32250995324988 5.761708267642415 8.47576549212926 0 0 0
1346 1 18.7268903172847 4.301102733851996 7.081756473027486 0 0 0
2029 1 17.219604720501206 5.767507983629593 8.493781716141202 0 0 0
1348 1 21.605425400364084 4.314522754632897 7.1283337565729 0 0 0
2031 1 20.09953972481149 5.815096108518736 8.506270260818122 0 0 0
1350 1 24.413417299207065 4.310342675569939 7.08943851519647 0 0 0
2033 1 22.98347602725858 5.712938805934213 8.593558450498142 0 0 0
2747 1 14.318696000821603 11.532433093588399 11.37581306743233 0 0 0
1370 1 1.404104278881094 7.193377725281077 7.0799232521901 0 0 0
2055 1 2.8074901486611044 8.593824746327344 8.530715514417283 0 0 0
1372 1 4.328202342323107 7.256879956784421 7.101536735744037 0 0 0
2057 1 5.663155037582179 8.832688697038853 8.483519321302195 0 0 0
1374 1 7.090012624765283 7.133107043608041 7.101346545436309 0 0 0
2059 1 8.556712384377487 8.637794049353511 8.4543068871031 0 0 0
1376 1 9.995396584966171 7.162515269673977 7.072231197632544 0 0 0
2061 1 11.445069858586724 8.616264428748416 8.488388926679514 0 0 0
1378 1 12.87361230648912 7.234542994245494 6.9432910335918505 0 0 0
1380 1 15.801590807210296 7.23227074814305 7.002227237620976 0 0 0
2063 1 14.300070844811847 8.579315216124886 8.437496853709064 0 0 0
1382 1 18.695375569983856 7.225330213771066 7.027531039551865 0 0 0
2065 1 17.204123051503956 8.650087849692186 8.412634866682941 0 0 0
1384 1 21.638823303353213 7.12394708625967 6.99996678275896 0 0 0
2067 1 20.146847630849056 8.597957507268974 8.511182644078291 0 0 0
2071 1 25.901377355561245 8.565779999567704 8.494654973910261 0 0 0
1386 1 24.44186826103428 7.267362971464238 7.075038241814636 0 0 0
2069 1 22.95235734974866 8.692387159067728 8.59985740790279 0 0 0
1406 1 1.3407019707206527 10.11149884068451 7.033176003512602 0 0 0
2091 1 2.755000316850984 11.62663642240696 8.42530172261306 0 0 0
1408 1 4.166366644945718 10.193338080856297 7.037641826223117 0 0 0
2093 1 5.7228079097169 11.650369863445242 8.50865995017803 0 0 0
1410 1 7.290238772216081 10.179672656869384 6.995385647049713 0 0 0
2095 1 8.524555901171848 11.681054722180122 8.465264418845841 0 0 0
739 1 25.932496483931505 5.810198994337896 2.7496724157621037 0 0 0
1412 1 10.05368612153024 10.089282598334588 7.0224570152148615 0 0 0
2097 1 11.50281935995186 11.55986053809958 8.458651082103083 0 0 0
1414 1 12.856137212562146 10.058654118425853 6.969310730803732 0 0 0
1416 1 15.674060283440733 10.149871840831675 7.109516671841087 0 0 0
2099 1 14.281037361768332 11.599045068398974 8.553174858879485 0 0 0
685 1 0.007143622728094101 2.9221166857171172 2.7522932003168155 0 0 0
1418 1 18.7375859714585 10.02493818798041 7.069220778275805 0 0 0
2101 1 17.22495900532515 11.512580815084215 8.495235783916582 0 0 0
1420 1 21.523662163446875 10.064384288825128 7.104074802006994 0 0 0
2103 1 20.17704957678666 11.52384762595103 8.557709356577242 0 0 0
1422 1 24.46889566734791 10.130316562518045 7.098816994382744 0 0 0
2105 1 22.963221582119566 11.52748491027563 8.491253386167655 0 0 0
2593 1 -0.05547321999138062 -0.02735339238635305 11.350272122441805 0 0 0
1946 1 1.3511795092892085 1.4336798222295954 9.907434493320137 0 0 0
2595 1 2.7976354114689133 0.018853321367574893 11.461635880052071 0 0 0
2062 1 12.856491963262064 10.078462440693352 9.896804898878122 0 0 0
2631 1 2.777050444592546 2.842607630979538 11.342720129840984 0 0 0
2594 1 1.3551754288263165 1.3752572270735466 12.811917143406042 0 0 0
1948 1 4.2821419628720045 1.3846828014195343 9.824231423812122 0 0 0
2597 1 5.748414547043419 -0.02748403381628539 11.416940601954042 0 0 0
2633 1 5.601773587710896 2.9284682726726183 11.361627780129755 0 0 0
2596 1 4.274276136475032 1.4812413838744591 12.803244224952744 0 0 0
2599 1 8.651656490019954 0.018476523359014257 11.472285873412426 0 0 0
1950 1 7.097238495150722 1.490351244844734 9.872232129113172 0 0 0
2635 1 8.618716947790807 2.820990483911697 11.337927977374301 0 0 0
2598 1 7.13450549643982 1.4385267974415739 12.868885105386592 0 0 0
1952 1 9.971199624701134 1.4400976556110165 9.851429099240319 0 0 0
2601 1 11.52287055425177 -0.0063993687383312875 11.36696410407618 0 0 0
2637 1 11.464535738049362 2.8306832255294365 11.317695248212571 0 0 0
2600 1 10.124246185496888 1.4054609698437979 12.838034530364556 0 0 0
1954 1 12.957482258811941 1.3720703932869616 9.958317860654802 0 0 0
1956 1 15.836906754425277 1.3295688402848571 9.899791179945831 0 0 0
2603 1 14.403103421749012 -0.05064901266483223 11.36151804596046 0 0 0
2639 1 14.376301127412448 2.7698633920468794 11.385100997971334 0 0 0
2602 1 12.960802459710015 1.3062530988956524 12.83553016798947 0 0 0
2604 1 15.769935630938777 1.3746855149369994 12.836777575109778 0 0 0
1958 1 18.721500156160335 1.3976022869980815 9.88420232805785 0 0 0
2605 1 17.25627997357281 -0.07395050118065605 11.406292010527585 0 0 0
2641 1 17.20078990021463 2.775702359451004 11.364055725912477 0 0 0
2606 1 18.703809807503017 1.4206392303781235 12.860892399389481 0 0 0
1960 1 21.583410756151604 1.4288291777009514 9.875323990414657 0 0 0
2643 1 20.14615376437971 2.842013736423723 11.35978813585131 0 0 0
2608 1 21.6135118631865 1.3524636695907588 12.770875426066283 0 0 0
2611 1 25.91943651686589 0.043571087512565304 11.303860181170057 0 0 0
1962 1 24.566451482966922 1.489510888331423 9.895726338757607 0 0 0
2645 1 23.107357890234972 2.889879086541222 11.467677674164218 0 0 0
2610 1 24.593404003558067 1.3204397151142817 12.858009186131133 0 0 0
2665 1 -0.06692877964907562 5.768770869076677 11.411247663176214 0 0 0
1982 1 1.3718227356431518 4.306826310595645 9.911605388189768 0 0 0
2667 1 2.8693455099021854 5.785675743364586 11.390540213113823 0 0 0
2630 1 1.4224152882172418 4.3460047751651665 12.815966911208777 0 0 0
1984 1 4.266861309385995 4.333559236588323 9.912206251147435 0 0 0
2669 1 5.695856163302415 5.835437509969167 11.427867097250545 0 0 0
2632 1 4.307924956431012 4.368241734234727 12.793832775703244 0 0 0
1986 1 7.124886678396605 4.381593165493659 9.9993707181207 0 0 0
2671 1 8.61687153233076 5.728287787836031 11.417098164615682 0 0 0
2634 1 7.161893801539111 4.366601258661988 12.85265486246776 0 0 0
1988 1 9.975510885668294 4.35887038383051 9.909191936755565 0 0 0
2673 1 11.576085622608174 5.643380123514077 11.227022730090482 0 0 0
1990 1 13.023026748216065 4.214098035276322 9.904948687928663 0 0 0
1992 1 15.735232916332546 4.25347617672645 9.913456506918003 0 0 0
2675 1 14.344746519817889 5.816681492472568 11.307743505317681 0 0 0
2640 1 15.820594893454524 4.335201387754141 12.758340679536408 0 0 0
1994 1 18.69933798208309 4.35579275683525 9.952397306111967 0 0 0
2677 1 17.286495441971926 5.732590689904324 11.360263588895142 0 0 0
2642 1 18.634344051895212 4.2083688213768715 12.810922267113796 0 0 0
1996 1 21.63054241751628 4.264818591945907 9.974308046793777 0 0 0
2679 1 20.207409765070285 5.69484601331084 11.435588637737567 0 0 0
2644 1 21.6621353746175 4.348745761633987 12.882274270564173 0 0 0
2681 1 23.128116617464755 5.802407559420023 11.356553607432502 0 0 0
1998 1 24.500598256669292 4.354827115694858 10.005743080456488 0 0 0
2703 1 2.7825812459775165 8.886408941506057 11.384814233261423 0 0 0
2018 1 1.3621764779329082 7.280494989134297 9.989373843570391 0 0 0
2666 1 1.4581404017784727 7.3203194070872435 12.833898261583105 0 0 0
2705 1 5.604777076223509 8.682242974278948 11.324439333746948 0 0 0
2020 1 4.269746888888309 7.202351562751273 9.969965874044062 0 0 0
2668 1 4.243778520979191 7.271449112385412 12.799720915576367 0 0 0
2707 1 8.554674266442385 8.674936758152562 11.401686403708117 0 0 0
2022 1 7.029030437804713 7.213034785773976 9.934720913893832 0 0 0
2670 1 7.150074319836076 7.253366679372669 12.830031181440422 0 0 0
2709 1 11.44650435437801 8.673615166117704 11.327836319411814 0 0 0
2024 1 10.065849220842313 7.16159837336938 9.932497261627576 0 0 0
2672 1 10.15223995712919 7.237296344194133 12.751695578796841 0 0 0
2674 1 12.828229275778043 7.110657922097966 12.82805367437438 0 0 0
2026 1 12.893008642537293 7.217310610588028 9.952071373833833 0 0 0
2711 1 14.319651151953684 8.651497495587263 11.454147606634828 0 0 0
2028 1 15.829688670317381 7.256437575044381 9.91819697381099 0 0 0
2713 1 17.22702924410245 8.712485860284893 11.336016657890655 0 0 0
2030 1 18.640499504522136 7.248227332591637 9.990009246417774 0 0 0
2715 1 20.141013282885115 8.61148788321554 11.482395491328909 0 0 0
2032 1 21.52155272834231 7.239397497211193 9.972972188824171 0 0 0
2680 1 21.669685176050926 7.209565619775214 12.852298961580283 0 0 0
2719 1 25.939253769163862 8.676913878954679 11.334160305994267 0 0 0
2717 1 23.146576236253775 8.716959236409362 11.430020770321187 0 0 0
2034 1 24.501605321074905 7.175958586062543 9.962863453796418 0 0 0
2682 1 24.53707177469723 7.277436807502986 12.84390942194606 0 0 0
2054 1 1.3679161315545307 10.270714914096008 9.834571581081086 0 0 0
2737 1 -0.07534470457576295 11.653183148839055 11.322157027332025 0 0 0
2739 1 2.7323810869165603 11.673582190902822 11.38674715005863 0 0 0
2702 1 1.4088233736598528 10.195275671290505 12.842829522578695 0 0 0
2741 1 5.710682967094086 11.651596987219976 11.38919534211475 0 0 0
2056 1 4.275238078859193 10.253712226358758 9.9412327366132 0 0 0
2743 1 8.55342669224251 11.589587582006896 11.425121425203077 0 0 0
2058 1 7.130716565260408 10.1794997829126 10.026093478494168 0 0 0
2064 1 15.736197720430098 10.1421092939597 9.88364783755209 0 0 0
2748 1 15.769272610948192 12.923537263330356 12.759944474022568 0 0 0
2745 1 11.445835120802021 11.581499760446906 11.277605317618542 0 0 0
2060 1 9.960709484065207 10.079121858574517 9.882486727240677 0 0 0
2708 1 10.117045125221045 10.116411722360354 12.855239139151129 0 0 0
2710 1 12.79812011786274 10.132136293256561 12.757641862989145 0 0 0
798 1 7.106481012556367 12.912000806534435 4.061265233476728 0 0 0
162 1 24.38680952179102 12.923713553439622 1.3604787188741017 0 0 0
2636 1 10.065432641022774 4.382057211668691 12.825314778597921 0 0 0
2638 1 13.012092314951618 4.302276401675676 12.803606217129268 0 0 0
2646 1 24.49760890471515 4.287221210471852 12.866485516682786 0 0 0
2676 1 15.752379560257 7.182564341901519 12.820188367391845 0 0 0
2678 1 18.637687787225623 7.133685438628001 12.783312387136707 0 0 0
2704 1 4.3304219152918435 10.18427721156577 12.886453482564097 0 0 0
2706 1 7.13759617641336 10.132615039637404 12.797190189572788 0 0 0
51 1 20.12747467600051 2.8780787992171413 -0.05429424012726258 0 0 0
87 1 20.109161592380282 5.694670231565609 -0.09672452701249767 0 0 0
123 1 20.091831504179208 8.636580363084805 -0.08048605974379086 0 0 0
3242 1 1.4104341629241859 1.4430567250885855 15.770564519032272 0 0 0
3243 1 2.776534785585415 -0.04504060719106255 14.328448954578356 0 0 0
3277 1 -0.03959015155607877 2.8552237755543604 14.289383239061115 0 0 0
3279 1 2.846116190451912 2.904195177266609 14.206952947773825 0 0 0
3241 1 -0.07049284406463291 0.0446968479777205 14.357752325561432 0 0 0
3244 1 4.250205360563511 1.46421201596974 15.760715093595184 0 0 0
3245 1 5.562053483557331 -0.04798277287854411 14.332983164359465 0 0 0
3281 1 5.700074995197601 2.860449116189336 14.281670351079104 0 0 0
3246 1 7.1060955946429525 1.3687628409835648 15.774107297010714 0 0 0
3247 1 8.542458638006064 0.05130606797040288 14.295430785124555 0 0 0
3283 1 8.709686616173109 2.87956159820173 14.26993887313526 0 0 0
3248 1 10.036292735533223 1.3581528891013268 15.686050583843649 0 0 0
3249 1 11.469346736302299 -0.10251634283568667 14.352064991996 0 0 0
3285 1 11.59232111105655 2.9121090041303566 14.212266850639335 0 0 0
3250 1 12.861607769153169 1.283784417043916 15.847814931844185 0 0 0
3251 1 14.350035339081154 -0.020603469156681334 14.369294105472 0 0 0
3252 1 15.826944721320652 1.3875745823802124 15.745774573480222 0 0 0
3287 1 14.317160396733 2.766489004020523 14.244011460222085 0 0 0
3253 1 17.215927370382808 0.013051362024820573 14.254070823358479 0 0 0
3254 1 18.642600163053217 1.3684004548227318 15.707284527255391 0 0 0
3289 1 17.164629316474574 2.8192634237593293 14.238549001883653 0 0 0
3256 1 21.62162108002479 1.4672794634179496 15.716243220307355 0 0 0
3291 1 20.181406205902988 2.877454132590766 14.2072709952569 0 0 0
3257 1 23.08372856328861 -0.06480990637251027 14.256339522204858 0 0 0
3258 1 24.588790610152273 1.462170335770504 15.766861411693531 0 0 0
3293 1 23.118378450484617 2.878489727279088 14.24864249937528 0 0 0
3278 1 1.3880529991137176 4.332810237023993 15.647108578783039 0 0 0
3315 1 2.7825192536786703 5.847347431951427 14.220504141498706 0 0 0
3313 1 -0.004321109263504749 5.759267796555173 14.27701204697546 0 0 0
3280 1 4.298864740168772 4.307140073557979 15.634143161507215 0 0 0
3317 1 5.742147128712547 5.839118085682193 14.184678807165739 0 0 0
3282 1 7.17518475855921 4.342836622190846 15.68284128751386 0 0 0
3319 1 8.606086405775883 5.784215083963296 14.299917684990856 0 0 0
3284 1 10.10615828157729 4.326443452715892 15.755858766591096 0 0 0
3321 1 11.511759379130986 5.7036113712154775 14.297791257407178 0 0 0
3286 1 12.868751893354842 4.255162223554606 15.745081868081146 0 0 0
5199 1 20.15741189812988 -0.0872168351819198 22.989382251705393 0 0 0
4553 1 22.957703893096095 -0.03939799817862877 20.11276939170979 0 0 0
3288 1 15.774979152773188 4.22227770462214 15.747822838677035 0 0 0
3323 1 14.353380984197912 5.804441566777282 14.266917602112333 0 0 0
3290 1 18.710730138880297 4.201385126380401 15.658203045783852 0 0 0
3325 1 17.212709707278762 5.736881612203497 14.255386421581735 0 0 0
3292 1 21.733927473900707 4.293108014023286 15.640330249831571 0 0 0
3327 1 20.071352490793195 5.706819619932982 14.20200191596859 0 0 0
3294 1 24.567220660151882 4.219129188113944 15.699153007239028 0 0 0
3329 1 23.12816574799833 5.807469085471349 14.243290310445044 0 0 0
4551 1 20.144667557459435 -0.07705965204350207 20.015101891104344 0 0 0
3314 1 1.3719356288083542 7.243767514231396 15.632386193925969 0 0 0
5993 1 23.14441868824653 11.440888449860743 25.797781078580748 0 0 0
3351 1 2.8883509418786075 8.697795236046725 14.266049871300636 0 0 0
3316 1 4.277165254752094 7.188716227024928 15.604189122684636 0 0 0
3353 1 5.757277300343161 8.741985384453894 14.230667725905855 0 0 0
3318 1 7.126438280557267 7.288097748442155 15.614951747013947 0 0 0
3355 1 8.644269010001485 8.704556143724982 14.20042210718334 0 0 0
3320 1 10.051006291578428 7.203326660611379 15.731974352109265 0 0 0
3357 1 11.463259885180731 8.640344280589458 14.229365830516224 0 0 0
3322 1 12.909942888348116 7.195339810840828 15.690932839535998 0 0 0
3324 1 15.693995486578288 7.185762431080849 15.723074458607275 0 0 0
3359 1 14.321494164414494 8.638303753852886 14.254660832676189 0 0 0
3893 1 5.575766263122724 -0.07687438071101838 17.177742399557214 0 0 0
3326 1 18.627633175165965 7.183657206643341 15.598662284680893 0 0 0
3361 1 17.247280858191836 8.63947371801967 14.236938044783404 0 0 0
5203 1 25.843651866655794 -0.08305032913119703 22.97230052873156 0 0 0
3328 1 21.58428356205831 7.157345263644831 15.583076737898988 0 0 0
3363 1 20.06088920529719 8.588342438149049 14.20531631478327 0 0 0
3367 1 25.930946351204124 8.73710491067018 14.290728513967805 0 0 0
3330 1 24.45915083766217 7.2265955906326935 15.716271560335764 0 0 0
3365 1 22.9938901228068 8.74269100177427 14.260209922866704 0 0 0
3350 1 1.3826383659283572 10.141828912132617 15.638330157043116 0 0 0
5345 1 23.15157569419111 11.547642134969381 22.993392283558116 0 0 0
3387 1 2.8106146020656837 11.728711750892938 14.293304132297106 0 0 0
3352 1 4.269595143549831 10.11932565519913 15.699186815691643 0 0 0