LAMMPS data file via write_data, version 2 Aug 2023, timestep = 500000, units = metal

11664 atoms
1 atom types

-0.1774198792381192 52.09083213634818 xlo xhi
-0.17739129218085026 52.09086072340753 ylo yhi
-0.17744819566378922 52.090803819924176 zlo zhi

Masses

1 55.847

Atoms # atomic

2 1 1.161219490378219 1.2978519012121983 1.1304707079569347 0 0 0
687 1 2.7161989007260843 2.8173206733258636 2.5358540638975966 0 0 0
651 1 2.702963798751864 -0.059729473995127805 2.6555330930101904 0 0 0
2753 1 23.057875537453743 11.638993528793113 11.231704241302653 0 0 0
4 1 4.166790413914293 1.3988157022691499 1.151262781515812 0 0 0
689 1 5.676090295771698 2.976983799814825 2.500507707338871 0 0 0
653 1 5.61834981134215 -0.09438901170289936 2.5406970171867083 0 0 0
6 1 7.018999987526602 1.3693204042710543 1.1420348262423932 0 0 0
691 1 8.475729199196032 2.8301701685248477 2.5469122080548336 0 0 0
1313 1 22.951354369446392 -0.13560542131001796 5.494779915404815 0 0 0
8 1 10.061131777494836 1.3728555544740475 1.0663140289955881 0 0 0
657 1 11.425619877568563 -0.09508220268451577 2.510309360615665 0 0 0
693 1 11.49382677161742 2.9273892044648924 2.504004839069214 0 0 0
10 1 12.905786338537148 1.4024615349566971 1.1487040484874997 0 0 0
12 1 15.859775225296776 1.489061548354028 1.1406162339308212 0 0 0
659 1 14.31836862793171 -0.10419896099755233 2.450599768399459 0 0 0
695 1 14.289246210837302 2.961800989505615 2.5691489300976964 0 0 0
14 1 18.637444804376848 1.4358658468137946 1.1852110129116025 0 0 0
661 1 17.180344811663147 -0.03738359424548818 2.563508462663552 0 0 0
697 1 17.21512671391961 2.982547897398529 2.717921539021963 0 0 0
16 1 21.62340014509295 1.3353242894607413 1.155979432910259 0 0 0
663 1 20.126315018445002 -0.049033095395083465 2.5664193208995587 0 0 0
699 1 20.18546090271644 2.8143316549673125 2.5915165481049423 0 0 0
18 1 24.43385061892355 1.4382845357611769 1.2089887140285027 0 0 0
701 1 23.12541409608223 3.0346739089930184 2.573699422935579 0 0 0
665 1 23.02495152851704 -0.061941006297855664 2.6476057204055787 0 0 0
2070 1 24.493866812141565 10.112500777248822 9.889101881649607 0 0 0
655 1 8.484877468726454 -0.04291354918557744 2.59370777438083 0 0 0
2755 1 25.878328651870458 11.588990897313442 11.324306062057321 0 0 0
38 1 1.224630539959329 4.408338780888803 1.0944955245345105 0 0 0
723 1 2.688818066961099 5.719027440918807 2.527878206344898 0 0 0
2718 1 24.407814225654047 10.147115584788022 12.838517752768 0 0 0
40 1 4.2268499204819046 4.288858030730871 1.0814360106901078 0 0 0
725 1 5.637842885486871 5.705897237391433 2.4668675966426385 0 0 0
42 1 7.107384740643646 4.336132164217123 1.0586457760390098 0 0 0
727 1 8.55499556003061 5.767813474237848 2.463352504306948 0 0 0
44 1 9.992019626721872 4.207236807131941 1.0516463533970524 0 0 0
729 1 11.203164657894469 5.806799016963577 2.582640459634491 0 0 0
46 1 12.795164340731501 4.452575939182337 1.0026011012164566 0 0 0
685 1 -0.1314854325682262 3.03195392792972 2.5691938399041208 0 0 0
48 1 15.836935495258814 4.38026082966947 1.1135860810053042 0 0 0
731 1 14.35640270317005 5.926618860710731 2.63821495388271 0 0 0
50 1 18.75792699630884 4.3341181747592605 1.1254870140743063 0 0 0
733 1 17.147201832734606 5.868670540034767 2.51731306740697 0 0 0
52 1 21.55492695642957 4.248302202836426 1.2031235456911133 0 0 0
735 1 20.195838916492413 5.671005296875029 2.667978410594348 0 0 0
54 1 24.55729251077412 4.428690538611743 1.115947992299424 0 0 0
737 1 23.16013063618612 5.633577459187079 2.6345988715612028 0 0 0
739 1 25.953636514490157 5.807741775335205 2.5561571337376443 0 0 0
74 1 1.2327223896961348 7.276615559083915 1.1289033145983893 0 0 0
759 1 2.8576848681827407 8.624191833041197 2.567887091158612 0 0 0
2751 1 20.139106076165316 11.531908318354523 11.281869370165804 0 0 0
76 1 4.227716444132378 7.186197748091745 1.0347333469594047 0 0 0
761 1 5.6949614375380895 8.71496517259012 2.520489951062369 0 0 0
78 1 6.99809048835573 7.285413850936321 1.0581922869468652 0 0 0
763 1 8.443550888037759 8.861846493563428 2.4554062981596427 0 0 0
80 1 9.826220741294902 7.361269299595517 1.0398450447068106 0 0 0
765 1 11.304233867822052 8.67750207553828 2.472796155885292 0 0 0
82 1 12.837520580797834 7.293500354983555 1.1209555676625311 0 0 0
84 1 15.735276013359776 7.262943653679933 1.0589095538967375 0 0 0
767 1 14.325842599695978 8.77596530281839 2.5099025413800033 0 0 0
86 1 18.805087271661684 7.308434613423445 1.2319405497594162 0 0 0
769 1 17.177381500635843 8.71351912332999 2.587664681890486 0 0 0
88 1 21.573975173345143 7.209829331243391 1.0196226921827125 0 0 0
771 1 20.329154052703032 8.647515476785065 2.599705082898208 0 0 0
90 1 24.62262770040549 7.240378098226292 1.1417640231465531 0 0 0
773 1 23.0164373764675 8.67097950399013 2.519596978106279 0 0 0
110 1 1.2652906639368948 10.055947523424052 1.0975279909369011 0 0 0
795 1 2.766562769013288 11.467423494970781 2.501543596613136 0 0 0
2068 1 21.559721022079923 10.063977400744818 9.854991800613686 0 0 0
112 1 4.214900512232298 10.037265283957202 1.1348559398225475 0 0 0
797 1 5.587305652122502 11.701962033679443 2.4984935765432232 0 0 0
114 1 7.035359790412101 10.29011144665933 1.1273401285504503 0 0 0
799 1 8.552406671871712 11.713245083004038 2.662722837145349 0 0 0
116 1 9.898757872083959 10.253756574675457 1.1531930944938131 0 0 0
801 1 11.477194676164164 11.615457767117078 2.610889304232351 0 0 0
118 1 12.730444150445788 10.111394520169979 1.0720148942273757 0 0 0
120 1 15.80806729032637 10.139603203078119 1.0957189923042614 0 0 0
803 1 14.301515722106211 11.504367561912725 2.540395652778713 0 0 0
2071 1 25.92531420457767 8.668243309739902 8.3755508533414 0 0 0
122 1 18.81257059405343 10.054388285773088 1.1404805458599103 0 0 0
805 1 17.368967886344013 11.5606661434174 2.5725963353572214 0 0 0
124 1 21.567100258749832 10.16437431404441 1.0293507973784592 0 0 0
807 1 20.24814705284911 11.543799663137353 2.5869718085070605 0 0 0
126 1 24.441143173447493 10.152271705775414 1.0682508575029055 0 0 0
809 1 23.061426114800284 11.488464516525164 2.555176165209554 0 0 0
2716 1 21.68206381694033 10.226713124807032 12.664855373400487 0 0 0
1299 1 2.8295421093396733 -0.04437170019780878 5.492979588105818 0 0 0
650 1 1.310049619192086 1.4102311322724703 4.1164097827467705 0 0 0
1335 1 2.6900428066513475 2.93400937779929 5.509501086358713 0 0 0
1297 1 -0.04785112576620423 -0.020419072682314993 5.5296190222810075 0 0 0
652 1 4.245929663160163 1.3945849542401876 3.928766617564727 0 0 0
1301 1 5.591265532482511 0.030353491907307267 5.468108754439898 0 0 0
1337 1 5.564337944070096 2.8864729291065316 5.482751749360899 0 0 0
1303 1 8.50799509235191 -0.033686031269429345 5.385517905813856 0 0 0
654 1 7.041019791317401 1.5080588748594577 4.119245789600436 0 0 0
1339 1 8.551083614363785 2.9168611992016444 5.3635492776739 0 0 0
656 1 9.972600495854593 1.4301156676543267 3.8639788813119074 0 0 0
1305 1 11.445577746080605 -0.08690337928956876 5.331425593652964 0 0 0
1341 1 11.388529839270465 2.8468056512869926 5.423486531717082 0 0 0
658 1 12.833077294759534 1.4801235031254754 4.005596838357081 0 0 0
660 1 15.808896102906301 1.3975054024794011 3.971649568964618 0 0 0
1343 1 14.354958784027994 2.851132777395956 5.46604782505413 0 0 0
1307 1 14.303193486102034 -0.0031794504465104956 5.307929469435606 0 0 0
662 1 18.58095935194249 1.3452351908583005 4.028441492646642 0 0 0
1345 1 17.265154395465363 2.8777023692176393 5.406719374558129 0 0 0
1309 1 17.12171869024226 -0.1304467698082673 5.362683104623592 0 0 0
1311 1 20.16626479710932 0.10136224492693996 5.411643792422629 0 0 0
664 1 21.754465908575824 1.5207120374997425 4.034849419190564 0 0 0
1347 1 20.102962842626557 2.753321604448878 5.372077985268722 0 0 0
666 1 24.46082410754008 1.3947931814845853 4.057301815395065 0 0 0
1349 1 23.089541062298423 2.9285423538373583 5.536488850909537 0 0 0
2749 1 17.208111943978242 11.614690980757864 11.197822044263617 0 0 0
1315 1 25.92185633485038 -0.07998384402599307 5.371134490452571 0 0 0
686 1 1.2554030536038951 4.382625417423557 4.009091895929072 0 0 0
1371 1 2.7336968904402674 5.751954222782928 5.402221409358804 0 0 0
1369 1 -0.16595750413855737 5.70395413493843 5.477377801775339 0 0 0
688 1 4.090722009352664 4.2294067269539015 3.909157409549894 0 0 0
1373 1 5.583375802968415 5.716836898623144 5.282842849476161 0 0 0
690 1 7.081175959069277 4.367676620671701 4.00024850972032 0 0 0
1375 1 8.472091996036044 5.797355538328721 5.522679404638437 0 0 0
692 1 9.933785825753713 4.266126236717788 3.926777806966286 0 0 0
1377 1 11.361037017958697 5.813069294047861 5.275891495035518 0 0 0
694 1 12.870790056408154 4.39902506307609 3.9302933489804266 0 0 0
696 1 15.691666677477283 4.443515505103794 4.052069175242429 0 0 0
1379 1 14.207246566076773 5.847100776386568 5.408294064106912 0 0 0
698 1 18.716728470774825 4.36130721475081 4.083680714819165 0 0 0
1381 1 17.274029217619216 5.785103896456635 5.396198083106213 0 0 0
700 1 21.568963715762983 4.3805209774781835 4.203466261756115 0 0 0
1383 1 20.131560137736223 5.898115966183274 5.460464043934193 0 0 0
702 1 24.56869612601381 4.291527503143688 4.120716449415491 0 0 0
1385 1 23.06860342189457 5.816209766744868 5.569076015533954 0 0 0
722 1 1.2126974963697117 7.288508742701494 3.8589326359587153 0 0 0
1407 1 2.779829455443771 8.599312541477609 5.357444450241816 0 0 0
1405 1 -0.11492855467071941 8.70633893586017 5.418817999186351 0 0 0
724 1 4.1851867822180475 7.14742654234248 3.980638882385329 0 0 0
1409 1 5.693579742593276 8.688958312603996 5.405863120964682 0 0 0
726 1 7.216727540586955 7.253362617780823 3.9258074988502125 0 0 0
1411 1 8.550556086846466 8.790625981570273 5.514474394788753 0 0 0
728 1 9.74822692175959 7.288266761658248 4.013455834554493 0 0 0
1413 1 11.443215612164469 8.714301830534279 5.449252646107484 0 0 0
730 1 12.751188834258757 7.332977763026452 3.981723640312688 0 0 0
732 1 15.870206075450437 7.204810728878759 4.04234009483013 0 0 0
1415 1 14.412441893176679 8.691135081518324 5.425079015053272 0 0 0
734 1 18.775563380889444 7.274745554001325 3.991899480898783 0 0 0
1417 1 17.21298498332779 8.715872518466025 5.485438109763225 0 0 0
736 1 21.68667371397949 7.166145296942726 4.145004125637983 0 0 0
1419 1 20.281224246861726 8.664811995373999 5.47850075288824 0 0 0
738 1 24.550129408663217 7.220767320308712 4.050425331024748 0 0 0
1421 1 23.119513263106995 8.694667622813748 5.464917334657471 0 0 0
1423 1 25.906987520567196 8.756612270516433 5.469108020488581 0 0 0
758 1 1.3394067167626225 10.07649451509077 4.017982021874089 0 0 0
1443 1 2.760223511045614 11.421961455842135 5.515884316239729 0 0 0
760 1 4.208933661447513 10.093162288990746 4.050955748296909 0 0 0
1445 1 5.5865454632748 11.5143988023125 5.588215826643037 0 0 0
762 1 7.000980666196609 10.25768800275474 3.924920008686505 0 0 0
1447 1 8.507277514607457 11.457458162768836 5.439782071832192 0 0 0
764 1 9.953593281934888 10.053480952919818 3.9759840808485407 0 0 0
1449 1 11.441827651899933 11.611771911940847 5.4866785924290555 0 0 0
766 1 12.899364076228641 10.182122606691129 4.065825806704478 0 0 0
768 1 15.776733306608524 10.110720136690047 4.022490554872958 0 0 0
1451 1 14.415637154966047 11.553597526559791 5.449659892732146 0 0 0
770 1 18.844302691572917 9.97866213866688 4.040155215712921 0 0 0
1453 1 17.21634880119012 11.592182927117742 5.426023172743796 0 0 0
772 1 21.605465787662453 10.197931285753477 4.062337548016693 0 0 0
1455 1 20.185224910637945 11.635759584180605 5.4958523748597745 0 0 0
774 1 24.605056116512014 10.141464777173642 3.9866428654371795 0 0 0
1457 1 22.93918301094978 11.674621597544446 5.497950305050824 0 0 0
1459 1 25.878715573733583 11.570857708196199 5.517267235311023 0 0 0
1945 1 -0.14412096866366084 -0.0207328882617763 8.271911199347189 0 0 0
1947 1 2.7692562380733814 -0.08503162812793416 8.430572821247605 0 0 0
1298 1 1.3769332962245036 1.3895273772250003 6.979277843371252 0 0 0
1983 1 2.712236286291967 2.9383934813089954 8.244827971935253 0 0 0
1949 1 5.493339512117957 0.09511767995707004 8.35109398858657 0 0 0
1300 1 4.118843424402824 1.4679634927701681 6.976130496373958 0 0 0
1985 1 5.688678674562104 2.8934404736633628 8.39032840729371 0 0 0
1951 1 8.575403702189915 -0.05283676975548619 8.33714100232427 0 0 0
1302 1 7.003233368534533 1.4607031714353633 6.862774737669291 0 0 0
1987 1 8.522380575284782 2.8430607634869918 8.30079152770062 0 0 0
1304 1 9.992511673837196 1.3497163267594572 6.743295560469639 0 0 0
1953 1 11.414686245961684 0.02910856259314812 8.461216248977976 0 0 0
1989 1 11.379480227939318 2.869710895077866 8.353693354755668 0 0 0
1306 1 12.790622009086938 1.2630551765427882 6.815844209204363 0 0 0
1308 1 15.756046389527539 1.3702003160762095 6.876097903447616 0 0 0
1955 1 14.373301218515358 -0.02061488804835221 8.244956469232081 0 0 0
1991 1 14.280969819502577 2.839203893699512 8.225446982887153 0 0 0
1310 1 18.523413779063436 1.3576918732883487 6.823955760021685 0 0 0
1957 1 17.157041876017956 0.014557003536992574 8.377073148897377 0 0 0
1993 1 17.087145838935665 2.8753849797543216 8.331033471666641 0 0 0
1312 1 21.60999491863866 1.3890103980835666 6.9370548615280505 0 0 0
1959 1 20.000177320297034 0.08729572662787838 8.376754067274295 0 0 0
1995 1 20.086889910553705 2.8547844615896794 8.404540096072797 0 0 0
1961 1 23.061035426349534 -0.04725294051403439 8.33418597791693 0 0 0
1314 1 24.53524541313605 1.3604495396599612 6.971055011642115 0 0 0
1997 1 23.000533452071767 2.910777774582733 8.514695196250196 0 0 0
2066 1 18.721479899269163 10.108461457752398 9.795906862527293 0 0 0
1999 1 25.88933281239047 2.8814127120390367 8.332252348456846 0 0 0
1334 1 1.3323122788182453 4.365633484962264 6.91520112483484 0 0 0
2019 1 2.7256973114481258 5.9193767427623385 8.347644876063846 0 0 0
1336 1 4.162427015695099 4.413015398896133 6.953974412555976 0 0 0
2021 1 5.674680013896272 5.732603200926344 8.309520694777532 0 0 0
1338 1 7.093711828930226 4.258531741411198 6.905597401469905 0 0 0
2023 1 8.423122394483853 5.7776427026314625 8.258537376743298 0 0 0
1340 1 10.011135467504564 4.363908421999613 6.8475029657962425 0 0 0
2025 1 11.47880716478563 5.729602248546498 8.400655559641852 0 0 0
1342 1 12.68326591946235 4.4207386411716705 6.771693196701085 0 0 0
1344 1 15.81774194337158 4.335163990849031 6.81490166984667 0 0 0
2027 1 14.321790784302378 5.717451988686497 8.204586218827119 0 0 0
1346 1 18.739939205110893 4.2735807727315755 6.992059143478345 0 0 0
2029 1 17.24995791151568 5.706691648547835 8.490236134878286 0 0 0
1348 1 21.63431456082211 4.281600947907672 6.947857341387912 0 0 0
2031 1 20.082318896572502 5.711729472510245 8.47000345222554 0 0 0
1350 1 24.525762743309244 4.383907484620058 6.925738777046104 0 0 0
2033 1 22.953291597094733 5.676160633287749 8.427955736948785 0 0 0
2053 1 -0.13495400349880135 8.68533760467007 8.481823855793781 0 0 0
1370 1 1.2245307574844442 7.207665711461607 6.820299798073837 0 0 0
2055 1 2.789028754731335 8.633703556932993 8.40854372178296 0 0 0
1372 1 4.244581578702036 7.156275107978974 6.817046422571661 0 0 0
2057 1 5.699751889693983 8.723449315831601 8.431898531412264 0 0 0
1374 1 7.025034531540267 7.270737235821757 6.878810592732248 0 0 0
2059 1 8.65436440604888 8.672355660342543 8.383395349962298 0 0 0
1376 1 10.015395521644967 7.208486612660085 6.935802910602341 0 0 0
2061 1 11.519063680258423 8.594153468396861 8.385080150823876 0 0 0
1378 1 12.916563700968068 7.293483354197793 6.848138015628222 0 0 0
1380 1 15.894567974839685 7.1147005667724645 6.933402222729314 0 0 0
2063 1 14.362134949859339 8.62256374816454 8.429780234875572 0 0 0
1382 1 18.699349671683404 7.251217680826666 6.86020065699082 0 0 0
2065 1 17.16358640953109 8.657984197028114 8.396608537085894 0 0 0
1384 1 21.5879280499441 7.138345877249558 7.00134390262606 0 0 0
2067 1 20.172763723732288 8.821460567561328 8.346335915268053 0 0 0
1386 1 24.45781088828212 7.172304383702272 7.047191683344375 0 0 0
2069 1 23.07031649517398 8.602671430632554 8.44658007705733 0 0 0
2089 1 -0.16983687368730457 11.492526755085292 8.388456462055116 0 0 0
1406 1 1.3979080437543243 9.983351272102988 6.8976297844910235 0 0 0
2091 1 2.837601106726864 11.571577628351076 8.265131349365777 0 0 0
1408 1 4.235647962660746 9.98032964971218 6.930780300738271 0 0 0
2093 1 5.677283384866154 11.643627637245837 8.423990755345926 0 0 0
1410 1 7.05906029142512 10.161329665294781 7.043051585378104 0 0 0
2095 1 8.54350212636888 11.686293996962428 8.311905914555723 0 0 0
2017 1 -0.15633944475369788 5.6751065126480285 8.374638884367513 0 0 0
1412 1 10.07559173702851 10.088457878009855 6.927881294354941 0 0 0
2097 1 11.354671308753124 11.564912618719278 8.390194137365459 0 0 0
1414 1 13.006674539614592 10.1148807578769 6.8784187695622006 0 0 0
1416 1 15.781497446473299 10.164151612136166 6.923425833081855 0 0 0
2099 1 14.296636001209341 11.541355697554811 8.3543741099836 0 0 0
2035 1 25.85412791755012 5.752378601380854 8.514100953982085 0 0 0
1418 1 18.757966767402095 10.142587145426884 6.909991529638905 0 0 0
2101 1 17.313032148920833 11.58516643237934 8.319392117174012 0 0 0
1420 1 21.640270289337707 10.150096876138173 6.9016110852225 0 0 0
2103 1 20.249140182516292 11.605261622351287 8.36339680709342 0 0 0
2107 1 25.88960908669332 11.67011282502818 8.352741775351504 0 0 0
1422 1 24.452533225775653 10.115100861781979 6.9741150822721805 0 0 0
2105 1 23.099534693460974 11.577317020607097 8.434050341630199 0 0 0
2593 1 -0.11669828311645829 -0.024341381463621636 11.244368745528222 0 0 0
1946 1 1.334404720456279 1.4435788147909894 9.788420352609053 0 0 0
2595 1 2.82645809646783 -0.09314825574860677 11.322710249934072 0 0 0
2631 1 2.7846864758282086 2.902439433430044 11.190840433447525 0 0 0
2594 1 1.260538172747932 1.4355292459018314 12.611976890953537 0 0 0
1948 1 4.141325028682654 1.3618006812304289 9.856769955056025 0 0 0
2597 1 5.658906273228167 0.010648456680717983 11.313461254995177 0 0 0
2633 1 5.760721675414294 2.8125335563958607 11.181268258141309 0 0 0
2596 1 4.304982113373685 1.5197381702056394 12.694402634891928 0 0 0
2599 1 8.525846491205215 -0.08831758925775489 11.289445938717277 0 0 0
1950 1 7.145339136893155 1.384415574570711 9.835079646140104 0 0 0
2635 1 8.523933796738062 2.875954016547942 11.323673117442114 0 0 0
2598 1 7.119959712420545 1.3823198838948068 12.778698105417876 0 0 0
1952 1 9.868429598385934 1.5413513528475045 9.84469232772224 0 0 0
2601 1 11.52583611575831 -0.05938509900418064 11.20699593450041 0 0 0
2637 1 11.494263017316287 2.894173592572373 11.249831617017106 0 0 0
2600 1 10.086634425216465 1.3226383611519497 12.739481724194194 0 0 0
2602 1 12.911681934391313 1.3248245808944858 12.709929195655572 0 0 0
1954 1 12.916459461279565 1.374507152593452 9.745841668304504 0 0 0
1956 1 15.751822032778847 1.4091118728059893 9.831851923361683 0 0 0
2603 1 14.365546950131227 -0.04663549808237469 11.238160610279706 0 0 0
2639 1 14.318102596346248 2.8038520691445266 11.18111613469807 0 0 0
2604 1 15.764151245087781 1.4383253841853751 12.729718405609328 0 0 0
1958 1 18.53305225819125 1.3879936673654498 9.845029896640515 0 0 0
2605 1 17.16147004409711 -0.03258072909850776 11.346554495718326 0 0 0
2641 1 17.200484857968743 2.8448565311156315 11.272048323333623 0 0 0
2606 1 18.743185066104047 1.3537101569599665 12.765254155681331 0 0 0
2607 1 20.149662454550615 -0.1745784568338457 11.205515968066733 0 0 0
1960 1 21.591076018525214 1.3979321363417654 9.883815480253812 0 0 0
2643 1 20.071061241198823 2.7495506749931047 11.348594200678244 0 0 0
2608 1 21.546985096124995 1.2949427568744905 12.611850305629874 0 0 0
2714 1 18.604328774594762 10.09827979281473 12.691577041182985 0 0 0
2609 1 23.032786220895716 -0.07846024747555398 11.256203362926717 0 0 0
2611 1 25.931328488719018 0.007269570021950333 11.262900030686131 0 0 0
1962 1 24.422608334923805 1.3709348633039498 9.790086265481031 0 0 0
2645 1 23.119047690214952 2.7849002940216008 11.356204449280984 0 0 0
2610 1 24.585867265930197 1.4342294510440896 12.677504076982194 0 0 0
1982 1 1.4044096652985822 4.322702474712637 9.796195214697308 0 0 0
2667 1 2.7581913557161863 5.838544976287722 11.36106939046707 0 0 0
2630 1 1.2790745139712332 4.353958387102542 12.559136971234128 0 0 0
1984 1 4.177116035146564 4.429682001730012 9.807612382793044 0 0 0
2669 1 5.756913781202099 5.803356397062233 11.290535470222569 0 0 0
2632 1 4.257167488638345 4.33407764972076 12.612894254085742 0 0 0
1986 1 7.142036288417529 4.3444970726926435 9.906167118794517 0 0 0
2671 1 8.596198350950852 5.767137401371429 11.18350732748623 0 0 0
2634 1 7.192414219370796 4.31182340637687 12.760125237029913 0 0 0
1988 1 9.974331567107955 4.236743552732454 9.800651687452685 0 0 0
2673 1 11.500125724204258 5.782230640551944 11.301052243708522 0 0 0
2636 1 10.023776094883408 4.3411680033690265 12.651722950098728 0 0 0
1990 1 12.93262714444327 4.311823595564128 9.771811091132351 0 0 0
2638 1 12.884233471996499 4.339527824397604 12.740031367905916 0 0 0
1992 1 15.675712167852677 4.247730574272467 9.801069805348298 0 0 0
2675 1 14.33192223333819 5.728707566314614 11.291548943848285 0 0 0
2640 1 15.749479469346868 4.181204486467719 12.785880856814304 0 0 0
1994 1 18.5847168901586 4.217746015697283 9.792919552922138 0 0 0
2677 1 17.244800908811047 5.66372823881114 11.35650160833416 0 0 0
2642 1 18.64700648522306 4.223779752754182 12.831283410214297 0 0 0
1996 1 21.48564941334997 4.244623284902542 9.938316313161126 0 0 0
2679 1 19.920512427004944 5.700228859954844 11.25406009116071 0 0 0
2644 1 21.671898855652206 4.271105343142694 12.661924724639352 0 0 0
2683 1 25.9003341246698 5.894121990104156 11.377777970865765 0 0 0
2681 1 22.949083567947444 5.803185732373841 11.201688116653282 0 0 0
1998 1 24.472471819432915 4.25890110302162 9.88954240677059 0 0 0
2712 1 15.681218667480925 10.21491228337771 12.64059832016954 0 0 0
2703 1 2.7544092270674247 8.591322996657677 11.244792111253066 0 0 0
2018 1 1.2944891018956095 7.279408340188273 9.88881933260776 0 0 0
2666 1 1.2857780919549502 7.294790036204286 12.739281296363439 0 0 0
2705 1 5.617637043496258 8.785197377169462 11.318723109750941 0 0 0
2020 1 4.323561772055473 7.200239581334526 9.886483790403958 0 0 0
2668 1 4.179929583330511 7.209572915376072 12.663925753875473 0 0 0
2707 1 8.603106302440372 8.723597108943842 11.457105037568486 0 0 0
2022 1 7.152054239463464 7.22591793140117 9.897070996688745 0 0 0
2670 1 7.1609243662985795 7.248842896794724 12.751527604932015 0 0 0
2709 1 11.381978379223805 8.69202039926632 11.278026091214358 0 0 0
2024 1 10.002583616923346 7.176177052761442 9.799351795921831 0 0 0
2672 1 10.005934265794348 7.1040677152774725 12.702978496661206 0 0 0
2674 1 12.925393396501867 7.21429887748365 12.738910256136762 0 0 0
2026 1 12.961696310038295 7.153139566050925 9.808099633991977 0 0 0
2711 1 14.282674585124132 8.661824528628125 11.163572244490567 0 0 0
2028 1 15.742757847584443 7.108940731629815 9.789482916040779 0 0 0
2676 1 15.702292322968946 7.304334574728864 12.670271410260472 0 0 0
2713 1 17.221734845403514 8.707781849591678 11.221630639731222 0 0 0
2030 1 18.69794099868811 7.330298105151893 9.774444551020165 0 0 0
2678 1 18.65802181509964 7.266136316168968 12.746731952555887 0 0 0
2715 1 20.121214776051808 8.683629401056125 11.401562382844252 0 0 0
2032 1 21.503574214286306 7.242424264317169 9.874170036864815 0 0 0
2680 1 21.496015462191213 7.084212960465802 12.753507277485474 0 0 0
2717 1 22.987518033647977 8.681616852107963 11.319255681435823 0 0 0
2034 1 24.456562691462885 7.229084773882768 9.87885239756527 0 0 0
2682 1 24.343833891774917 7.199354362425616 12.697874886703666 0 0 0
2054 1 1.3615871760654965 10.06047378528333 9.784953103959742 0 0 0
2739 1 2.7191990084454347 11.710146899988189 11.247117283626018 0 0 0
2702 1 1.170957228755216 10.079787558943117 12.657775939483804 0 0 0
2741 1 5.700650268976686 11.668393112949081 11.19045518218573 0 0 0
2056 1 4.141460061359694 10.171027541063834 9.957756161001392 0 0 0
2704 1 4.190258032904424 10.275599352341485 12.662279171512822 0 0 0
1981 1 -0.04387344405151339 2.932214828276826 8.284804058432591 0 0 0
1441 1 -0.1267486878911228 11.50439116887577 5.546543492243503 0 0 0
2743 1 8.53210729726197 11.633272838986201 11.217250263770444 0 0 0
2058 1 7.086678962582561 10.161846868916582 9.920429361372959 0 0 0
1333 1 -0.1636335154448716 2.9805779671480397 5.437419115647587 0 0 0
1387 1 25.87064470792504 5.779905410266001 5.55213904809637 0 0 0
2745 1 11.381135767821522 11.587435455170846 11.2507777801021 0 0 0
2060 1 9.986216028711965 10.008042769574729 9.79265931006194 0 0 0
2708 1 9.9137438661371 10.281467200538913 12.873049566855649 0 0 0
2710 1 12.759971830749205 10.21774070830365 12.76975675560469 0 0 0
2062 1 12.782936548718114 10.109863227180133 9.827432380203973 0 0 0
2747 1 14.261374830418768 11.510389254564744 11.181645556374573 0 0 0
2064 1 15.807329079259596 10.193750919189087 9.824007676412231 0 0 0
2646 1 24.55702551200727 4.257680517196848 12.748160557448522 0 0 0
3242 1 1.3231421927769333 1.4281982769793888 15.627091267647684 0 0 0
3243 1 2.8113973702904493 -0.03850699791200787 14.119578428832773 0 0 0
3277 1 -0.038561382278203105 2.7948348867408694 14.120447916694182 0 0 0
3279 1 2.7680642633240957 2.7610272507397577 14.033917873910388 0 0 0
3241 1 -0.13597399527490606 0.08091590608112947 14.156160789897784 0 0 0
3244 1 4.213120576987177 1.4306028165413838 15.695070029992882 0 0 0
3245 1 5.732393661767467 0.07472036034153262 14.276698519712413 0 0 0
3281 1 5.655924480330835 2.9904929824465887 14.162786193807166 0 0 0
3246 1 7.14224843610139 1.4710678123442658 15.710648582510341 0 0 0
3247 1 8.526122728661234 0.003163649972366872 14.233304641116048 0 0 0
3283 1 8.73793704965231 2.77828436784258 14.154920021832151 0 0 0
3248 1 10.013375477214009 1.3279492000866833 15.712290053196096 0 0 0
3249 1 11.408300428929566 -0.12365804660593946 14.287758060949484 0 0 0
3285 1 11.524921098583798 2.942178660926201 14.188773348016126 0 0 0
3250 1 12.892944057080804 1.3524853544757283 15.758103586628776 0 0 0
3251 1 14.334023887687371 0.007057671552648165 14.252244697678776 0 0 0
3252 1 15.682042572382981 1.3943909296498231 15.77254098842387 0 0 0
3287 1 14.192707343941187 2.8295617712793666 14.24026487821715 0 0 0
3253 1 17.100831592187287 0.034228571842136346 14.121970057260787 0 0 0
3254 1 18.65882608127749 1.4297335253563892 15.665201219008766 0 0 0
3289 1 17.207189085025842 2.807496158700116 14.22596469773451 0 0 0
3256 1 21.602444855604183 1.4896561039050502 15.67976979246395 0 0 0
3291 1 20.195711842491704 2.8538764201645406 14.17526557311685 0 0 0
3255 1 20.197868660773757 -0.02631968054527048 14.216078189763044 0 0 0
3257 1 23.175725049922562 0.06273393518202566 14.121398084645444 0 0 0
3258 1 24.476641262879326 1.422991599981723 15.720026336765496 0 0 0
3293 1 23.083921360697317 2.8124333450810113 14.094546361755087 0 0 0
5993 1 23.02305760991422 11.48695009528635 25.715657596601083 0 0 0
5345 1 23.045868961549708 11.603915662164443 22.905608973902485 0 0 0
3278 1 1.3968113228321797 4.274342344390609 15.419711643240326 0 0 0
3315 1 2.6963590229263663 5.8926796908774985 14.043940803918002 0 0 0
3280 1 4.17546131208339 4.313738205674775 15.551651265674852 0 0 0
3317 1 5.628583260210539 5.777146630343662 14.061833785350082 0 0 0
3282 1 7.178445184171544 4.353637204983692 15.641828488341337 0 0 0
3319 1 8.648118143728404 5.657114102813241 14.244391974310114 0 0 0
3284 1 9.991437368552896 4.22572579985406 15.628512918072785 0 0 0
3321 1 11.490431415690972 5.763048906359112 14.191532197672373 0 0 0
3286 1 12.910692636315732 4.374705774854869 15.674990110692477 0 0 0
3288 1 15.744124917278526 4.2993514831681345 15.65365834204051 0 0 0
3323 1 14.403160532417292 5.765868695021075 14.083268801696915 0 0 0
3290 1 18.6185360175735 4.197156656117991 15.682630197315294 0 0 0
3325 1 17.164152998945926 5.707786960668658 14.13237740967117 0 0 0
3292 1 21.58913513224477 4.280083644741571 15.617655418690825 0 0 0
3327 1 19.99856538884291 5.766147545357111 14.145069741942637 0 0 0
3294 1 24.53665123901319 4.146334962407736 15.60034805702845 0 0 0
3329 1 23.0103433744488 5.7014946387003596 14.149960525978987 0 0 0
5845 1 17.29978529645827 0.04695777258262268 25.654753404731974 0 0 0
3314 1 1.3177111668320227 7.325616647338055 15.559698915116398 0 0 0
3351 1 2.7176780279086845 8.82527083444279 14.165941548936978 0 0 0
5310 1 24.47604182544157 10.121497573837269 24.293304420547535 0 0 0
3316 1 4.29020207950314 7.186423130109952 15.51335186746052 0 0 0
3353 1 5.631695882546832 8.768434038211455 14.18571039605436 0 0 0
3318 1 7.043532558842674 7.208581017972596 15.641855928960949 0 0 0
3355 1 8.690948988287623 8.59582980226735 14.168686913306772 0 0 0
3320 1 9.973787353026589 7.166541867917522 15.663681437032933 0 0 0
3357 1 11.371822699821132 8.76958259620996 14.180657375377978 0 0 0
3322 1 12.86718330444934 7.272570635701481 15.590656138125986 0 0 0
3324 1 15.697266994140964 7.298828610863754 15.500399495226661 0 0 0
3359 1 14.343672419987108 8.783447663320603 14.08681709970185 0 0 0
3326 1 18.534485862511087 7.284931319809177 15.526846290304634 0 0 0
3361 1 17.106120362486145 8.726431547409154 14.013979722772852 0 0 0
3328 1 21.592334829592644 7.238417788714631 15.509359415826085 0 0 0
3363 1 20.172574418024293 8.771304035913003 14.152050361756809 0 0 0
3367 1 25.857346018813807 8.656589968628818 14.098690569533675 0 0 0
3330 1 24.461511561236296 7.221127015850611 15.481493374177667 0 0 0
3365 1 22.918702437863928 8.731177746560018 14.089334554047806 0 0 0
3350 1 1.288253520734555 10.314380199139661 15.527686650966046 0 0 0
3387 1 2.7233202049943874 11.665369886938633 14.077987921807088 0 0 0
5995 1 25.798850441390844 11.525945492340266 25.879459831714648 0 0 0
3352 1 4.151042113388296 10.123741886855825 15.623992799294367 0 0 0
3389 1 5.561956585927714 11.709033683525941 14.243109303188279 0 0 0
5257 1 -0.11222373086148707 5.73464531150119 22.957950402915998 0 0 0