LAMMPS data file via write_data, version 2 Aug 2023, timestep = 700000, units = metal

11664 atoms
1 atom types

-0.24136342943281264 52.15465001419532 xlo xhi
-0.24132309538417474 52.154690348245545 ylo yhi
-0.24140670635618022 52.15460673727292 zlo zhi

Masses

1 55.847

Atoms # atomic

2 1 1.1625086683731156 1.4157756196933395 1.03506621870413 0 0 0
687 1 2.504190791901168 2.7995045048024627 2.5206897291905452 0 0 0
651 1 2.5434112041845185 0.012222943077777437 2.5144071032265236 0 0 0
2753 1 23.140900858706775 11.519723007500591 11.210210219648959 0 0 0
4 1 4.0314643561931955 1.4382627133213794 1.0216988153706745 0 0 0
689 1 5.551734636187209 2.891860689582406 2.5120881045718453 0 0 0
653 1 5.578611956095666 0.06068549146430252 2.4216377611074407 0 0 0
6 1 6.975982801842294 1.47803287303155 1.0147596806091423 0 0 0
691 1 8.503743819801151 2.98262617470107 2.32296825379135 0 0 0
655 1 8.675222796944611 -0.004627275675204129 2.317403582090546 0 0 0
8 1 9.955604436507546 1.4680573440910432 0.8180203718376351 0 0 0
657 1 11.543581768174933 0.044021005440115946 2.3528980022464667 0 0 0
693 1 11.4859748895844 2.874566572792668 2.2122537199676233 0 0 0
10 1 12.931571597553354 1.3988550208555282 0.7594238929473862 0 0 0
12 1 15.817182587156886 1.330898796641057 0.7723179473315511 0 0 0
659 1 14.310231276199431 0.152545839546331 2.3887348461131697 0 0 0
695 1 14.215485712358065 2.8830721339475622 2.4212273224771725 0 0 0
14 1 18.7067470508801 1.509959639177247 1.006287691911856 0 0 0
661 1 17.052912586754164 0.03545143843265747 2.439008750548014 0 0 0
697 1 17.136949862085267 2.958752107421403 2.25107706173205 0 0 0
16 1 21.627923437844164 1.43094798706388 0.9389502189601853 0 0 0
663 1 20.227921913261188 0.06209682798191368 2.449253706673909 0 0 0
699 1 20.080733836865523 2.9380658275027236 2.5018649370616157 0 0 0
18 1 24.46397666694892 1.5213694831765783 0.9004983951664474 0 0 0
701 1 22.942981592750247 2.9734469970514636 2.4094890492232066 0 0 0
665 1 23.131021674251 0.13628781077602092 2.5065431007965127 0 0 0
703 1 25.890728169054523 2.849438743244443 2.4434631051137 0 0 0
667 1 25.823877720074574 -0.07796399046474628 2.3748014409944314 0 0 0
38 1 1.239949414977483 4.337944177713745 1.059943566736883 0 0 0
723 1 2.6906393745592494 5.826717689953942 2.4697794220815994 0 0 0
2070 1 24.445028858040118 10.192452333787749 9.661977561129438 0 0 0
40 1 4.231822431217791 4.318754689455999 0.9164516950300414 0 0 0
725 1 5.567446149342954 5.746693149365741 2.577092611464224 0 0 0
42 1 7.03758419366564 4.39224661882711 0.9171070749762442 0 0 0
727 1 8.452829350734286 5.812869124008422 2.2947814096866073 0 0 0
44 1 9.983799319171684 4.277530992631077 0.836898563688756 0 0 0
729 1 11.470652560458035 5.81602793270818 2.390394399675001 0 0 0
46 1 12.936761740518886 4.390607877238918 0.8769858564570083 0 0 0
48 1 15.739448616320873 4.340621855302621 0.8280719130899217 0 0 0
731 1 14.254474644502684 5.770173012347764 2.51284909375662 0 0 0
50 1 18.72599548518649 4.331345401487495 0.8534867905752341 0 0 0
733 1 17.255709999406214 5.799674080962709 2.1662633335580534 0 0 0
52 1 21.56032246086794 4.262060503512068 0.873902606036945 0 0 0
735 1 20.0775011497239 5.862873400964503 2.352715502104477 0 0 0
54 1 24.38330086246953 4.414033537632895 0.9430546244727589 0 0 0
737 1 22.921560590519096 5.842166060877813 2.356731721592951 0 0 0
739 1 25.729088419534573 5.834026258821379 2.57473696104328 0 0 0
74 1 1.2245077835067668 7.345780461138889 1.0275820269718698 0 0 0
759 1 2.7643664120790086 8.713635717793087 2.4447297971468176 0 0 0
2718 1 24.511347564287174 10.21698733634385 12.692813995782073 0 0 0
76 1 4.204194472510609 7.25718376317563 1.0904779731072183 0 0 0
761 1 5.593893022702327 8.872879765942809 2.40265233599635 0 0 0
78 1 7.068777649069468 7.370393978405737 1.0279118954487196 0 0 0
763 1 8.593647310211377 8.828036242801206 2.3389266366938286 0 0 0
80 1 10.043550249278743 7.251922355917573 0.9004032136574356 0 0 0
765 1 11.306734619513088 8.752968450778566 2.3965905016752274 0 0 0
82 1 12.864662238872867 7.238018424694527 0.9172123817018405 0 0 0
84 1 15.778611242815213 7.267703305187935 0.9918109659087224 0 0 0
767 1 14.418451727602237 8.724796403538656 2.421785624287557 0 0 0
86 1 18.772718291318316 7.302927083437403 0.851590247995373 0 0 0
769 1 17.162419977057738 8.74436133684033 2.263751995191568 0 0 0
88 1 21.494447336501526 7.247081065253747 0.9013389493985926 0 0 0
771 1 19.96226127260796 8.810845537598336 2.4641370060300285 0 0 0
90 1 24.447588997985065 7.207744023106097 1.0459913598013564 0 0 0
773 1 22.931888588175447 8.784769588934417 2.465864914151234 0 0 0
110 1 1.3060337076020503 10.169130644066442 1.030218186101128 0 0 0
795 1 2.778969312822466 11.680844035160087 2.4564035065459957 0 0 0
112 1 4.160114969380955 10.088037542185294 0.9118025237889709 0 0 0
797 1 5.50741474981087 11.666630044150205 2.3725917057837096 0 0 0
114 1 7.11452926539596 10.227560411082965 0.9215244724397844 0 0 0
799 1 8.511711672748968 11.58592526296529 2.556544972524417 0 0 0
116 1 9.94851982981943 10.281929261972982 0.8887514759649322 0 0 0
801 1 11.559251991755323 11.608786525501941 2.5525818331286123 0 0 0
118 1 12.85718386428881 10.265779101398003 0.9212804791155442 0 0 0
120 1 15.889225719710357 10.227453233110285 0.8596488107701705 0 0 0
803 1 14.385910117132012 11.44554708047084 2.4342435633863686 0 0 0
2665 1 -0.1287233507354415 5.611809153741138 11.154489624901066 0 0 0
122 1 18.575843399283215 10.2258291028499 0.9071650007966572 0 0 0
805 1 17.16741072419936 11.605572085795723 2.4057868646328657 0 0 0
124 1 21.4686342360895 10.25753828325978 1.0022724676291306 0 0 0
807 1 20.060671971317262 11.608107318378197 2.46552894069491 0 0 0
126 1 24.497849584488872 10.020611057838996 1.0052597228464057 0 0 0
809 1 23.001950727940343 11.725139852728955 2.5316769815151923 0 0 0
1299 1 2.6852566781559903 -0.02001040351919342 5.345782131463287 0 0 0
650 1 1.1902825681509905 1.3995987303200783 3.9559522220247256 0 0 0
1335 1 2.706635127663931 2.9483083502138214 5.196434833004014 0 0 0
2751 1 20.29178422991723 11.542962968772217 11.078563544385991 0 0 0
2068 1 21.69922295824962 10.238017529005356 9.550029726895525 0 0 0
652 1 4.130250806612143 1.4126484392873735 3.8808865378214144 0 0 0
1301 1 5.778907489816605 0.15721667992285315 5.315798536807096 0 0 0
1337 1 5.5909248206546796 2.9023520923251205 5.285432062648675 0 0 0
1303 1 8.588416678385714 -0.018743045685734733 5.404846658342189 0 0 0
654 1 7.1828309706937254 1.467383319207813 3.7396405250355227 0 0 0
1339 1 8.568537782204508 2.9764891746856104 5.215762912911736 0 0 0
656 1 10.024663739870213 1.4141033075649754 3.8779042043639382 0 0 0
1305 1 11.418328746354671 0.03213323016294567 5.30491421304451 0 0 0
1341 1 11.386043552298236 3.0931745107876454 5.404269690828875 0 0 0
658 1 12.830406120639363 1.5299902949298674 3.975752629888497 0 0 0
660 1 15.702079284018186 1.5960953359864234 3.893950703959181 0 0 0
1343 1 14.268580321524913 3.1137948655647745 5.356105106644685 0 0 0
1307 1 14.208719708782098 0.0028728838396170353 5.2680572183289724 0 0 0
662 1 18.550388963353267 1.4997625843693962 3.784316489146847 0 0 0
1345 1 17.303044133887365 2.9699301395507054 5.292221672924969 0 0 0
1309 1 17.017072734131307 0.02650144686600653 5.424523982942313 0 0 0
1311 1 20.034213675647777 0.15873113517669601 5.323301066999326 0 0 0
664 1 21.520653315817533 1.541440623871355 4.071077436209404 0 0 0
1347 1 19.88630424713939 2.952584554857253 5.1612657594827995 0 0 0
1313 1 22.925071125570984 -0.0899765661379672 5.392235086984604 0 0 0
666 1 24.531927049462514 1.4190271015792788 4.031250731564992 0 0 0
1349 1 23.037650044621223 2.8607429015032766 5.4247099552388605 0 0 0
1351 1 25.784706525364683 2.8730590781869316 5.380616579820116 0 0 0
686 1 1.2743926088491007 4.516994403659593 3.906521985388685 0 0 0
1371 1 2.7233561234365 5.687112455983328 5.434556576543639 0 0 0
1369 1 -0.24124283801834845 5.808005592501118 5.41906598323453 0 0 0
688 1 4.120357005727377 4.363303530349496 3.857995654985313 0 0 0
1373 1 5.67951120878527 5.807894903873476 5.272814335617547 0 0 0
690 1 7.043429087445311 4.308028894736019 3.8540273087164305 0 0 0
1375 1 8.518254859112842 5.95656040830407 5.250358415353618 0 0 0
692 1 10.02617571508934 4.345700183370812 3.7776233268615114 0 0 0
1377 1 11.473961697131147 5.81391424804259 5.161609049336894 0 0 0
694 1 12.789064322368715 4.286266236621048 3.7961807081102705 0 0 0
696 1 15.880344391687846 4.36843779210613 3.8306994975931934 0 0 0
1379 1 14.387272288503041 5.840282266072966 5.31557228857844 0 0 0
698 1 18.517995503766087 4.361237055655867 3.6510750674009778 0 0 0
1381 1 17.364369939177276 5.890777909881636 5.234930317176188 0 0 0
700 1 21.550048842510815 4.462060826264882 3.8451939528518846 0 0 0
1383 1 19.957235654297335 5.810748189373935 5.236191962585514 0 0 0
702 1 24.24973553620683 4.392130456485247 3.988218446435325 0 0 0
1385 1 22.88508118137836 5.787765411347017 5.517296524532235 0 0 0
1387 1 25.892263215414168 5.799785569547079 5.312985114701573 0 0 0
722 1 1.1823417115569943 7.216084954196549 3.9572066158724413 0 0 0
1407 1 2.654821797869981 8.639414410787518 5.372345748308398 0 0 0
724 1 4.1275867209138895 7.273951265576384 3.926064484321568 0 0 0
1409 1 5.518369651636401 8.761874391736635 5.392164634340585 0 0 0
726 1 7.232960938895712 7.350646811161366 3.812678723283092 0 0 0
1411 1 8.53650247387615 8.67045223149176 5.413980438251715 0 0 0
728 1 10.03366114094428 7.2839571762728434 3.900110587509718 0 0 0
1413 1 11.45892870695485 8.623583937005867 5.317289012843358 0 0 0
730 1 12.857719109916452 7.361679653353476 3.7634500276252885 0 0 0
732 1 15.838339836411595 7.230314266359874 3.899493398491133 0 0 0
1415 1 14.288971401830976 8.835449395561009 5.295086050893467 0 0 0
734 1 18.449463176358154 7.3070880138815175 3.677504762089761 0 0 0
1417 1 17.100346216963906 8.750303524274795 5.329561983661475 0 0 0
736 1 21.6067696216594 7.258493393433118 3.8532215357451136 0 0 0
1419 1 20.126853253677787 8.780448301006153 5.211892575387895 0 0 0
738 1 24.329720721729032 7.3815637454314516 3.883491815092735 0 0 0
1421 1 22.93859699689477 8.818992014291245 5.337163901799966 0 0 0
2716 1 21.62208136519085 10.232092059140538 12.616625680326571 0 0 0
758 1 1.2635943840700499 10.150522941272996 3.973829145463612 0 0 0
1443 1 2.673122372561244 11.542709980333473 5.5149198098761705 0 0 0
760 1 4.0808321222197925 10.23237701347622 3.9508887020981884 0 0 0
1445 1 5.590148765046499 11.536672703732817 5.4824216706733715 0 0 0
762 1 7.060752122469889 10.155877971757691 3.9782727679454446 0 0 0
1447 1 8.460542958286705 11.619721353994999 5.293583146025357 0 0 0
764 1 9.961957364519506 10.019389414176114 3.95366763262695 0 0 0
1449 1 11.497182443504672 11.549573451639999 5.257446677256047 0 0 0
766 1 12.839621551546292 10.080338994791607 3.8161659868653395 0 0 0
768 1 15.884474332264851 10.082581358140025 3.8168090199245492 0 0 0
1451 1 14.34964774591296 11.710462128943584 5.38346753899321 0 0 0
770 1 18.48832994407416 10.231952715766736 3.8346866885378326 0 0 0
1453 1 17.144903971381428 11.689846426330652 5.346495631763582 0 0 0
772 1 21.54548651189227 10.223604783570817 3.8112618152815045 0 0 0
1455 1 20.062109632931033 11.635591302711584 5.186896446259421 0 0 0
774 1 24.517595317141264 10.117751199304822 3.79220984168244 0 0 0
1457 1 22.994217199799337 11.724460818058908 5.32343397306124 0 0 0
1945 1 -0.24007773993875306 -0.10010217681517936 8.216764009466369 0 0 0
1947 1 2.5756930572293846 0.018072139174977075 8.195781316360666 0 0 0
1298 1 1.1716711567090923 1.4505122132175945 6.743472286783632 0 0 0
1983 1 2.654510528884314 2.8358245075038533 8.184308318757443 0 0 0
1981 1 -0.18957800224933694 2.9063249629160115 8.182039553186721 0 0 0
1949 1 5.552476863747429 -0.009686648451268765 8.410226400066707 0 0 0
1300 1 4.163246082251459 1.4802587439562938 6.829860125212288 0 0 0
1985 1 5.750834293786629 2.8803434961147834 8.305409440425821 0 0 0
1951 1 8.589462131008167 -0.09116289820273002 8.282198366643279 0 0 0
1302 1 7.203850444691509 1.4562171198813452 6.813024705799507 0 0 0
1987 1 8.550842444096864 2.9093227482832957 8.333311186820442 0 0 0
1304 1 9.918297038743003 1.5420262321027427 6.83172392978094 0 0 0
1953 1 11.41933366222699 0.029857568321761452 8.184910688046399 0 0 0
1989 1 11.436506672816089 3.1844052231707125 8.167224761788017 0 0 0
1306 1 12.759026065493549 1.5720193955582031 6.774860402399187 0 0 0
1308 1 15.64644806330999 1.5333403096832958 6.727488075106599 0 0 0
1955 1 14.210127220539185 0.14217123900870537 8.287708503553201 0 0 0
1991 1 14.294650023633023 3.0494352076326683 8.16597359575773 0 0 0
1310 1 18.637588258439752 1.3929509668685056 6.918862974004253 0 0 0
1957 1 16.943703494995503 -0.03129115873214758 8.20210994762671 0 0 0
1993 1 17.084194788700994 2.853571704874904 8.195045039290035 0 0 0
1312 1 21.538020008267022 1.4807698072285036 6.696767385470427 0 0 0
1959 1 20.041176730526452 0.0547460537451121 8.28286251106354 0 0 0
1995 1 20.16387319120048 2.8008610298802394 8.23220770243324 0 0 0
1961 1 22.986475828397698 -0.1290519535994895 8.429494138218915 0 0 0
1314 1 24.39672798841043 1.4799618168682058 6.8562927180510105 0 0 0
1997 1 23.07017016073026 2.9329986430228345 8.358506555490504 0 0 0
1334 1 1.2318632980132884 4.384683874425665 6.775242794582676 0 0 0
2019 1 2.6908774818919374 5.834114989751668 8.31747998817053 0 0 0
1336 1 4.097229824429345 4.194301603229187 6.758592318449303 0 0 0
2021 1 5.590497304935153 5.79137652782369 8.219562817054097 0 0 0
1338 1 7.179392210959116 4.334381123200022 6.77850254391305 0 0 0
2023 1 8.606070250170186 5.881383432514628 8.319325269975225 0 0 0
1340 1 9.945842019416789 4.536035401790184 6.7465645650337915 0 0 0
2025 1 11.554080768851557 5.774242823283683 8.332284919443762 0 0 0
1342 1 12.830716707496727 4.582716955862873 6.775745457710452 0 0 0
1344 1 15.789059711883727 4.443754970805871 6.740717512378609 0 0 0
2027 1 14.244158722623824 5.768495317301959 8.357181865958626 0 0 0
1346 1 18.62001044230318 4.245878318816901 6.883070647243963 0 0 0
2029 1 17.163671574192755 5.8130210493781505 8.278831203332903 0 0 0
1348 1 21.44772879658198 4.190034496659627 6.672251219032863 0 0 0
2031 1 20.018202943991295 5.756310639048375 8.205886105644097 0 0 0
1350 1 24.408648942397562 4.384117819400045 6.849182543001512 0 0 0
2033 1 23.095878209572398 5.904206488769436 8.132918936918603 0 0 0
2035 1 25.907108257096176 5.743163957825904 8.2455650375916 0 0 0
1370 1 1.3951936714018216 7.2264616323769255 6.855414782198349 0 0 0
2055 1 2.7237768561582976 8.721638046990616 8.246551530776523 0 0 0
1372 1 4.145770277239479 7.174925355330282 6.778517949080096 0 0 0
2057 1 5.578771838972102 8.630888646467369 8.26410186017072 0 0 0
1374 1 7.108068027068583 7.284620334287015 6.817551124669832 0 0 0
2059 1 8.643451280552037 8.775879909963699 8.341883543737431 0 0 0
1376 1 10.096062991379494 7.2691995842848085 6.917121185876196 0 0 0
2061 1 11.495741055355214 8.737868040404367 8.331450592366716 0 0 0
1378 1 12.924327574891832 7.298504283577133 6.7788725290368825 0 0 0
1380 1 15.822762127400825 7.325639749110487 6.7874882912516075 0 0 0
2063 1 14.336700856209134 8.742456933493804 8.243998551164504 0 0 0
1382 1 18.73532715259938 7.412213784788589 6.820697434020801 0 0 0
2065 1 17.131867217217785 8.77680268667646 8.320642148186543 0 0 0
1384 1 21.514073898048856 7.454489489308691 6.727201813584969 0 0 0
2067 1 20.159132490983467 8.891501142947082 8.09198862333964 0 0 0
1386 1 24.564351269750077 7.276884966435715 6.732100204563189 0 0 0
2069 1 22.981472149211836 8.735048458379435 8.15253557312683 0 0 0
1406 1 1.1813750583837908 10.205483962478562 6.901159123830435 0 0 0
2091 1 2.702325544531596 11.641312752674088 8.297843767209432 0 0 0
1408 1 4.194256416825925 10.152950865995042 6.8899860541927636 0 0 0
2093 1 5.644424979334889 11.668665258993435 8.16663942059395 0 0 0
1410 1 7.1045675322245065 10.002872263186603 6.861942253470289 0 0 0
2095 1 8.489192217482554 11.72178903895839 8.316147183470951 0 0 0
1412 1 10.008626354439102 10.252763126526235 6.724703127256069 0 0 0
2097 1 11.347290641854778 11.669632063137888 8.174948504675442 0 0 0
1414 1 12.782257830398965 10.1647698673134 6.764321632891725 0 0 0
1416 1 15.71761487381351 10.191223666847096 6.6733020716471225 0 0 0
2099 1 14.307701627167255 11.571722431916973 8.209194096140834 0 0 0
1418 1 18.600113460774832 10.274787063163124 6.747943653743061 0 0 0
2101 1 17.185941134971994 11.715451799512724 8.241543147545476 0 0 0
1420 1 21.470135006227007 10.284892551349696 6.619779478359054 0 0 0
2103 1 20.087953002513668 11.752847594205805 8.220918230810057 0 0 0
1422 1 24.50774788176135 10.109640323785365 6.617786111716566 0 0 0
2105 1 23.092699362583858 11.651910851626537 8.121867326600654 0 0 0
2749 1 17.335433898569047 11.635944584255768 11.114225054005493 0 0 0
1946 1 1.0910151256684053 1.4569479070836133 9.698126784461426 0 0 0
2595 1 2.6771681326892796 0.055825044507460286 11.22747575848581 0 0 0
2631 1 2.655805217698398 2.789108889760513 11.182156752868835 0 0 0
2594 1 1.0539898208767347 1.4714328412940503 12.66628908139784 0 0 0
2066 1 18.808560075561108 10.215632486360796 9.61640555888661 0 0 0
1948 1 4.082554047063713 1.4450824171765808 9.71239231239413 0 0 0
2597 1 5.619601033266692 -0.007426797167046084 11.162194907486544 0 0 0
2633 1 5.642034776830964 2.9156669339027954 11.001389992808525 0 0 0
2596 1 4.13325660488823 1.4834687600980645 12.62907389484385 0 0 0
2599 1 8.542363743675626 0.022509563953687695 11.235657420206289 0 0 0
1950 1 7.080797335652021 1.4124093822714465 9.659548341125388 0 0 0
2635 1 8.431432822010487 2.7627627777225254 11.169028616693836 0 0 0
2598 1 7.0280021653396405 1.2809353679771116 12.682012616265606 0 0 0
1952 1 10.090562114128838 1.5138298168497644 9.666149430839933 0 0 0
2601 1 11.403723757054708 0.10860654574747347 11.183777479559149 0 0 0
2637 1 11.576839826169277 2.8824247613214777 11.255539499952206 0 0 0
2600 1 9.890570635797987 1.4672614413738134 12.638973786121545 0 0 0
2602 1 12.857916544187578 1.3984688323125254 12.643997824931347 0 0 0
1954 1 12.793730204821278 1.5500805579268004 9.61008919162741 0 0 0
1956 1 15.652024110310983 1.4802020617171585 9.729421313440543 0 0 0
2603 1 14.384764954589103 -0.026864674051736037 11.150016739257726 0 0 0
2639 1 14.328038518015857 2.875842497732137 11.169529088780868 0 0 0
2604 1 15.699764516891547 1.5520204302083174 12.761752690756595 0 0 0
1958 1 18.529179376795604 1.5264518308970627 9.694747349294234 0 0 0
2605 1 17.146634270012587 0.08062863212423749 11.096426789366703 0 0 0
2641 1 17.111465750732958 2.8435598839987746 11.165456136862836 0 0 0
2606 1 18.6086557477365 1.51466171859942 12.692939891425173 0 0 0
2607 1 20.114568714843156 0.09394239586023062 11.232346737946944 0 0 0
1960 1 21.569723672333186 1.3145602994604217 9.725286786526741 0 0 0
2643 1 20.196074940958052 2.9126240034906066 11.137639763036095 0 0 0
2608 1 21.519125593824118 1.404496558874992 12.680856927185962 0 0 0
2609 1 23.110931365041516 -0.03740137590738618 11.340606684341722 0 0 0
1962 1 24.49056010970479 1.464956575458599 9.780178830918965 0 0 0
2645 1 22.860171445725864 2.832631200950807 11.278623605089397 0 0 0
2610 1 24.463666906276515 1.518648837021202 12.597139535575826 0 0 0
1982 1 1.3373740238332497 4.211950517932008 9.720384260276909 0 0 0
2667 1 2.6416599006743793 5.710448028401264 11.148186553916098 0 0 0
2630 1 1.2652100613591954 4.210390618850543 12.584969822887095 0 0 0
1984 1 4.155227346069021 4.328591768568541 9.58904526343064 0 0 0
2669 1 5.583951740551889 5.7304388229036896 10.979349010255778 0 0 0
2632 1 4.220829941735941 4.324729732679829 12.618989465917739 0 0 0
1986 1 7.218935569825535 4.482826001084468 9.713144013314439 0 0 0
2671 1 8.545764438610862 5.80857500858095 11.346945536763691 0 0 0
2634 1 6.998653261085643 4.295113447604304 12.566499415873517 0 0 0
1988 1 9.936074423240981 4.291520891827874 9.839177613218821 0 0 0
2673 1 11.362529025559994 5.770541223765135 11.350557922570225 0 0 0
2636 1 9.885572655362605 4.252672738721949 12.75782633833462 0 0 0
2638 1 12.88918319238625 4.3386550520600435 12.642620546628144 0 0 0
1990 1 12.89857416166774 4.446713765137717 9.96761393683436 0 0 0
1992 1 15.74508497147929 4.316529028701291 9.73324286355503 0 0 0
2675 1 14.428022429120066 5.833528108649864 11.178368481032765 0 0 0
2640 1 15.851738408182918 4.39850594212936 12.697242933179858 0 0 0
1994 1 18.69404858725314 4.376752070816199 9.680012756186937 0 0 0
2677 1 17.29227925250896 5.706506105044276 11.18363619115803 0 0 0
2642 1 18.633667458537886 4.329513568417446 12.635808618786713 0 0 0
1996 1 21.653063198181382 4.431663715644644 9.751702027437062 0 0 0
2679 1 20.076727714188888 5.788542580570283 11.27428442849205 0 0 0
2644 1 21.477894308413113 4.267519508815284 12.69194584889481 0 0 0
2714 1 18.79337472331108 10.18837444942066 12.417024332697325 0 0 0
2681 1 23.054725917168142 5.865573696191154 11.204857679305848 0 0 0
1998 1 24.466155231623485 4.414051970074408 9.67233150874173 0 0 0
2646 1 24.348506394329345 4.329864639061933 12.502104121233392 0 0 0
2703 1 2.6770003718162405 8.75737244075488 11.133522000800928 0 0 0
2018 1 1.2465268805363197 7.240577465144592 9.891540554460665 0 0 0
2666 1 1.2514136311099244 7.255750462207939 12.670619433921294 0 0 0
2701 1 -0.2184475176293338 8.77002990727837 11.170652411763317 0 0 0
2705 1 5.589173970759906 8.747310525990079 11.174737946682665 0 0 0
2020 1 4.13135293835193 7.291679858344161 9.762872361624442 0 0 0
2668 1 4.165111691429574 7.348093735191921 12.598934378196509 0 0 0
2707 1 8.363589694513024 8.856767243162272 11.022132388697292 0 0 0
2022 1 7.15282892006051 7.1691502118295025 9.783317942041185 0 0 0
2670 1 7.032918412936334 7.312926974758484 12.571288311116108 0 0 0
2709 1 11.345726394462156 8.741323626433347 11.201411097904359 0 0 0
2024 1 9.928642981123199 7.209651036455658 9.840456780401203 0 0 0
2672 1 9.875431935899888 7.276915753388515 12.713221564765213 0 0 0
2674 1 12.853995821959517 7.271419659171046 12.602612349872956 0 0 0
2026 1 12.961766357594783 7.36475776663616 9.7909696522892 0 0 0
2711 1 14.398652116097894 8.837340211340507 11.194026470646174 0 0 0
2028 1 15.8078603450497 7.2936592541314615 9.83512387850411 0 0 0
2676 1 15.855293076152524 7.330889235314759 12.54994008945575 0 0 0
2713 1 17.373154890005175 8.762611683959701 11.195610692623166 0 0 0
2030 1 18.574824262186436 7.2975604827267135 9.690349513855296 0 0 0
2678 1 18.71669979685905 7.2894101354921155 12.706783400230908 0 0 0
2715 1 20.30920611350678 8.792249803756611 11.117403213961826 0 0 0
2032 1 21.554560975358278 7.258869901868795 9.532893476310134 0 0 0
2680 1 21.62432083475296 7.277242034712947 12.686119217382634 0 0 0
2717 1 23.038280275927644 8.654524240060951 11.115608611284578 0 0 0
2034 1 24.552660064693722 7.331058207615411 9.474606979329018 0 0 0
2682 1 24.680521611885514 7.33266566221954 12.569598623339939 0 0 0
2710 1 12.830792657558465 10.163566276291983 12.63601958543684 0 0 0
2054 1 1.2627804201180386 10.108081495630056 9.697213345614479 0 0 0
2739 1 2.7418895230075475 11.632528223096742 11.09346226639259 0 0 0
2702 1 1.1924413115367827 10.277622585567494 12.687105310322936 0 0 0
2741 1 5.582261251671029 11.679855825613407 11.067500845264732 0 0 0
2056 1 4.176425939096727 10.206068270410672 9.626561897815495 0 0 0
2704 1 4.087070563297282 10.152702372839897 12.547264204022976 0 0 0
2743 1 8.383984930071161 11.723966279223562 11.055695320795754 0 0 0
2058 1 6.939502835363032 10.169589133492165 9.602675331730534 0 0 0
2706 1 7.010304813031644 10.362959639996683 12.570261830445014 0 0 0
2745 1 11.523230542157366 11.585407551133255 11.137502039685064 0 0 0
2060 1 10.058050757288921 10.203356368595967 9.745922432817897 0 0 0
2708 1 9.927698853009037 10.202893026218204 12.586785623822715 0 0 0
2062 1 12.915340093348751 10.126496309923171 9.766620889544303 0 0 0
2064 1 15.810572369373407 10.23286503303476 9.638982792521949 0 0 0
2747 1 14.299903431217743 11.562147661037283 11.275841851985309 0 0 0
2712 1 15.932272716928097 10.148559953014326 12.575723841258514 0 0 0
685 1 -0.17796945006197973 2.9612856132184433 2.5607075510397106 0 0 0
793 1 -0.16997247361472034 11.681570426767884 2.4305702746345457 0 0 0
1405 1 -0.12644796340143216 8.71613193184807 5.3835648777049085 0 0 0
1459 1 25.903422292611495 11.70862997753611 5.300847825647471 0 0 0
1441 1 -0.16936953280203682 11.665461406437359 5.430166497142515 0 0 0
1963 1 25.819246839074193 0.0941721757758302 8.239867947534341 0 0 0
1999 1 25.816363302828513 2.98371628016257 8.208729538393555 0 0 0
2017 1 -0.14919795220858134 5.871521483843534 8.332313623681413 0 0 0
2107 1 25.938404804648897 11.654395653319177 8.098640942742053 0 0 0
3242 1 1.113974826005118 1.3817090521829543 15.573866086881985 0 0 0
3243 1 2.608247050616421 0.16633598056509935 14.078840261501655 0 0 0
3279 1 2.6859060545113516 2.865418219545517 14.045833289573855 0 0 0
5993 1 23.201790955239236 11.567374741826011 25.69494255725779 0 0 0
3244 1 4.165211083001945 1.4813749454308733 15.427856837963816 0 0 0
3245 1 5.703242666758628 -0.2227487574423733 14.104330106869021 0 0 0
3281 1 5.731230835169001 2.8215048775744958 14.058280118001681 0 0 0
3246 1 7.106383156459258 1.314711684067076 15.556408169384728 0 0 0
3247 1 8.57381775442984 -0.12755332844230105 14.091496987592167 0 0 0
3283 1 8.474434345790025 2.916223798462574 14.224690803067544 0 0 0
3248 1 9.991370918430995 1.4074973267247775 15.455381243848372 0 0 0
3249 1 11.334472783306815 -0.07920761742071036 14.111265112066194 0 0 0
3285 1 11.425617489281105 2.847584130657394 14.151404451907654 0 0 0
3250 1 12.89292479460694 1.3784806142063715 15.549518798070928 0 0 0
3251 1 14.377982450877512 -0.16258841034319751 13.981950031956728 0 0 0
3252 1 15.740390430402659 1.4436934603566225 15.638417684982095 0 0 0
3287 1 14.252682503062085 2.8537346718745447 14.143540474749228 0 0 0
3253 1 17.13127973977468 0.01919528417908356 14.054230997501664 0 0 0
3254 1 18.66169611948306 1.4682444558043126 15.523369315584516 0 0 0
3289 1 17.211252192845645 2.950614849722881 14.12958226187359 0 0 0
3256 1 21.55456134453797 1.4898165421974852 15.551071845589345 0 0 0
3291 1 20.113252552416633 2.95483258782654 14.146018438064944 0 0 0
3255 1 20.151192906846436 -0.0007973577555069056 14.14503493299738 0 0 0
3257 1 23.029404094075996 -0.06073367752289882 14.141733640229585 0 0 0
3258 1 24.490348385627772 1.438986921426823 15.50533579754644 0 0 0
3293 1 22.996949826805423 2.9104087826320706 14.079610111662284 0 0 0
5345 1 23.224516662965502 11.557920653813174 22.749491590434964 0 0 0
3295 1 25.888527056335334 2.9360813972871314 13.893498885808938 0 0 0
3278 1 1.2987110813853306 4.350523882462982 15.493624467927463 0 0 0
3315 1 2.6711936686890883 5.701813895094203 13.935320817707208 0 0 0
3313 1 -0.23306952061593522 5.89367605655412 14.082039703886926 0 0 0
3280 1 4.165410137067977 4.422400239897009 15.44121159175607 0 0 0
3317 1 5.626418585774068 5.879883158141608 14.075120174660206 0 0 0
3282 1 7.014184510722704 4.414356530595549 15.421723930148591 0 0 0
3319 1 8.443742569150468 5.835179867110595 13.999178609398633 0 0 0
3284 1 9.924778461399876 4.382251989773144 15.529695401482895 0 0 0
3321 1 11.449195427835487 5.734855803481248 14.149512690031782 0 0 0
3286 1 12.891777406512418 4.4182883470875005 15.496362267364702 0 0 0
3288 1 15.748042879287597 4.235684609828885 15.544079589777159 0 0 0
3323 1 14.287508039603113 5.7701675661875464 14.110730991384758 0 0 0
3290 1 18.644935766785057 4.3042875224526425 15.502334041450206 0 0 0
3325 1 17.20328164614902 5.783175861683301 14.144215249331257 0 0 0
3292 1 21.595526868462006 4.517152915081485 15.62609698781809 0 0 0
3327 1 20.124137157155335 5.797642262787429 14.144701387354736 0 0 0
3294 1 24.538076474183907 4.307348873183958 15.451772461675267 0 0 0
3329 1 23.096017380149835 5.848188616283929 13.96641752358995 0 0 0
3331 1 25.865369919343994 5.815704089467422 14.01301723002392 0 0 0
3314 1 1.2823102584391404 7.17180541891098 15.491490330142886 0 0 0
3351 1 2.735544304218334 8.837339950961093 14.095062945931698 0 0 0
3316 1 4.101321552275295 7.308535910661008 15.402226666276828 0 0 0
3353 1 5.658918154940204 8.989833935139107 14.065614582442397 0 0 0
3318 1 7.0167008486781866 7.39563143458877 15.414690057160803 0 0 0
3355 1 8.546338254740713 8.901947312419644 14.051784204917716 0 0 0
3320 1 9.929659499287904 7.279510376666407 15.592507322801579 0 0 0
3357 1 11.472952352603103 8.826591416831631 14.156297534812916 0 0 0
3322 1 12.819352752248081 7.343236043359045 15.58660330165446 0 0 0
3324 1 15.750126136134039 7.478942223365046 15.431177004684908 0 0 0
3359 1 14.31608796408809 8.837487127484353 13.869963718075025 0 0 0
3326 1 18.62314469738365 7.402294759512197 15.57483802018082 0 0 0
3361 1 17.363869826735286 8.866641927056055 14.02661544428474 0 0 0
3328 1 21.503569271430372 7.259068409176386 15.576101269441962 0 0 0
3363 1 20.14810037434995 8.77294600962606 14.065789776929888 0 0 0
5310 1 24.764286858905503 10.113358886463807 24.249519139278302 0 0 0
3330 1 24.671073566693874 7.376692022658102 15.592141229298544 0 0 0
3365 1 23.12873427941828 8.751380954904931 14.024309003540372 0 0 0
3350 1 1.2575262648396068 10.255268794815251 15.554900821582656 0 0 0
3387 1 2.757414423879502 11.652403553324865 14.00589650304269 0 0 0
5995 1 25.93508230328272 11.606072572415387 25.771962413384223 0 0 0
3352 1 4.07233617720134 10.221002586272817 15.550354641509466 0 0 0
3389 1 5.615194986016432 11.593282001846669 14.102176746650654 0 0 0
3354 1 7.180083771895695 10.316484192909494 15.545309045133127 0 0 0
3391 1 8.56066523364404 11.635981388864574 13.921070228213406 0 0 0
3356 1 10.018816672188962 10.378288540066492 15.51463964284351 0 0 0
3393 1 11.344729938059276 11.727649589600334 13.951865485352139 0 0 0
3358 1 12.927096823566814 10.25852497726232 15.462161844389662 0 0 0