LAMMPS data file via write_data, version 2 Aug 2023, timestep = 900000, units = metal

11664 atoms
1 atom types

-0.3149302904852789 52.22850946827302 xlo xhi
-0.3149307828098422 52.228508975949055 ylo yhi
-0.31491492466226845 52.22852483409625 zlo zhi

Masses

1 55.847

Atoms # atomic

2 1 1.0622224101493074 1.395310288118788 0.7693788648891768 0 0 0
687 1 2.6305104651343343 2.8519824542807486 2.2019702811087685 0 0 0
651 1 2.5546701579247695 0.0329841345821929 2.1923590337624788 0 0 0
2718 1 24.489228742916684 10.331290475598323 12.521327296542252 0 0 0
4 1 4.044711330212679 1.4232351730101325 0.7873603744181215 0 0 0
689 1 5.559076290479323 2.98511173248202 2.3175600701756904 0 0 0
653 1 5.5558118495077435 0.1107212934645207 2.192851896104391 0 0 0
6 1 6.965884386656848 1.5980487299764392 0.7188472155833674 0 0 0
691 1 8.50968402804012 2.896302537480475 2.264736167545921 0 0 0
655 1 8.386658338395842 0.05523149145668149 2.2233038237146037 0 0 0
8 1 9.805692778919775 1.4387840643581258 0.8131482470306335 0 0 0
657 1 11.492697338258974 -0.1336756857937681 2.0793855028571473 0 0 0
693 1 11.423439765346147 2.901992139433146 2.067900253390814 0 0 0
10 1 12.949873335934662 1.3753479975654432 0.8335995064303556 0 0 0
12 1 15.89620084062864 1.5589169671001857 0.8685825556860729 0 0 0
659 1 14.446245390015369 -0.013895280311655045 2.2580869064630726 0 0 0
2719 1 25.939247950271042 8.706017262716083 11.019707082945358 0 0 0
14 1 18.7341481426099 1.3246885463681004 0.6830252929105384 0 0 0
661 1 17.503388940451664 -0.14423523339041516 2.1560259889977904 0 0 0
697 1 17.366190301840103 3.133940734004765 2.3689495617472915 0 0 0
16 1 21.707458367087174 1.3538334478256462 0.7537118671441276 0 0 0
663 1 20.152770705705223 -0.039739310262532024 2.053635878119084 0 0 0
699 1 20.10016530533041 2.846631568804979 2.367777811022862 0 0 0
18 1 24.514266435162366 1.2844640289841567 0.8343655361358475 0 0 0
701 1 23.00793330803441 2.826913931545513 2.1927179416857148 0 0 0
665 1 23.157323995151803 -0.11774210684566278 2.2437087097240362 0 0 0
38 1 1.0997241686510757 4.185758883661147 0.8879765466743907 0 0 0
723 1 2.4873421319259594 5.821444757341729 2.2576293451998 0 0 0
721 1 -0.1999303560053328 5.781541947058241 2.276481774284656 0 0 0
40 1 4.101894748559926 4.288076133943632 0.8126243440646814 0 0 0
725 1 5.528128416854046 5.789283205178728 2.2272378747346098 0 0 0
42 1 6.960096472334401 4.397456397384381 0.6322823771245574 0 0 0
727 1 8.446343813705127 5.978294305489255 2.25424593594133 0 0 0
44 1 9.882772685700266 4.4299457914198825 0.9727593321098742 0 0 0
729 1 11.532602140394102 5.786882816915264 2.297897724842812 0 0 0
46 1 12.89782582567191 4.348084326212279 0.7357673591721452 0 0 0
695 1 14.316099291714815 2.7970437221604643 2.232844443126574 0 0 0
48 1 15.660581302666719 4.358799005422836 0.9094287705363775 0 0 0
731 1 14.254610825455519 5.749271715608899 2.203855265392842 0 0 0
50 1 18.78095384016325 4.430394550250694 0.665115370777258 0 0 0
733 1 17.29769256491351 5.7046406473928375 2.2940132275818703 0 0 0
52 1 21.534146722571766 4.405538413659891 0.7611352288051032 0 0 0
735 1 20.111121310192228 5.620549350227936 2.342014266118004 0 0 0
54 1 24.500295440345464 4.465308440837892 0.9122796018131585 0 0 0
737 1 23.01307215386583 5.868594831921972 2.2342367197224346 0 0 0
74 1 1.146962608061896 7.6316110484221245 0.7703130624455361 0 0 0
759 1 2.7009027073615375 8.671658665786634 2.2419557049798926 0 0 0
2070 1 24.424095844435964 10.146090207956158 9.719113339893077 0 0 0
76 1 4.18259552904313 7.342917038803569 0.7661269827637283 0 0 0
761 1 5.646093359881842 8.737598737416347 2.3185281426914712 0 0 0
78 1 7.271110978515015 7.457003717117028 0.7944161738261739 0 0 0
763 1 8.560476151252864 8.704469330777995 2.424269907609371 0 0 0
80 1 9.931264543565808 7.262711230858659 0.7442307884694142 0 0 0
765 1 11.511203402004384 8.683917376820434 2.27348487022753 0 0 0
82 1 12.846463221208454 7.192247664634596 0.8068732162412062 0 0 0
84 1 15.73154867141498 7.233963167741957 0.9359044059827151 0 0 0
767 1 14.400127040034025 8.725005897760793 2.3854792811304892 0 0 0
86 1 18.56114597820843 7.2079395045396595 0.8867808059107003 0 0 0
769 1 17.28703535993333 8.66010451786599 2.4314621067494158 0 0 0
88 1 21.598098223237255 7.329335200596536 0.8731009406512522 0 0 0
771 1 19.956522015544465 8.671997262864942 2.2337188189709662 0 0 0
90 1 24.538392372391556 7.193279764388055 0.9021818639183288 0 0 0
773 1 23.143156248282555 8.709129325518553 2.303987072956485 0 0 0
775 1 25.912865989140826 8.661934204066887 2.3042322750068536 0 0 0
110 1 1.1399882894330573 10.256935712746563 0.7442065505541446 0 0 0
795 1 2.699974519935062 11.68131611231811 2.1370477503179655 0 0 0
2753 1 23.062312302225223 11.835586051812069 11.288256955550175 0 0 0
112 1 4.181509964396088 10.302017383933162 0.8245804366587746 0 0 0
797 1 5.606488518725925 11.688397987609253 2.1852215752939164 0 0 0
114 1 6.923987589537005 10.126764500480403 0.879129105777068 0 0 0
799 1 8.580911470143525 11.663649566708335 2.337608613658724 0 0 0
116 1 9.948791400964026 10.008318299577367 0.9209585643362217 0 0 0
801 1 11.38131496020545 11.597697273826691 2.1291935903983554 0 0 0
118 1 12.949747795499507 10.260084968290558 0.9208216819304282 0 0 0
120 1 15.953493336427684 10.172638905986528 0.9022768538634154 0 0 0
803 1 14.424515975006678 11.482085700099308 2.2968964941353516 0 0 0
122 1 18.617609798097778 10.216283923792249 0.8915220221344518 0 0 0
805 1 17.271656603213643 11.705553176415027 2.3746870050987394 0 0 0
124 1 21.447191762835825 10.194323336548795 0.9407165678430678 0 0 0
807 1 20.217465205983608 11.870892802723425 2.195785782090981 0 0 0
126 1 24.460826871697673 10.098496542724755 0.8758465351165725 0 0 0
809 1 23.11524046113099 11.5661359294441 2.2832717914567113 0 0 0
811 1 25.928467733375253 11.476884665339073 2.4139523912125522 0 0 0
1299 1 2.6941883937095485 0.08295270997905257 5.09676397535227 0 0 0
650 1 1.0146771552226386 1.4751396298062582 3.7912353556906737 0 0 0
652 1 4.092805235394003 1.4097410418092986 3.7129137587959837 0 0 0
1301 1 5.546332078282803 -0.018298155133967764 5.171914261445832 0 0 0
1337 1 5.5526949896664854 2.9060493203631514 5.218892550955633 0 0 0
1303 1 8.44927721949967 0.018894683328317674 5.10698947813338 0 0 0
654 1 6.955866064953066 1.3990452441697285 3.6774011293979463 0 0 0
1339 1 8.429618293080233 2.874360843671308 4.9921249801158 0 0 0
656 1 9.959085463958646 1.488666333161385 3.6897919632839695 0 0 0
1305 1 11.386973933718455 -0.03266052921950763 5.0959187123401914 0 0 0
1341 1 11.3739154515874 2.8467738765498622 5.18414920131151 0 0 0
658 1 12.818618522768526 1.413802279605846 3.6287568885308534 0 0 0
660 1 16.047132977735487 1.553623443666709 3.644125914430122 0 0 0
1307 1 14.414543434398608 -0.05089301693137771 5.171568517454181 0 0 0
662 1 18.88225073285064 1.5193206500234728 3.928351708920376 0 0 0
1309 1 17.247862924995445 0.016025039194693003 5.1367969506849445 0 0 0
1311 1 20.308494996308703 -0.011152445706455683 5.404026014724586 0 0 0
664 1 21.76739240310796 1.4151665840390297 3.617967546039911 0 0 0
1313 1 23.109580499656314 0.0031378559586249244 5.112443764040324 0 0 0
666 1 24.56414332600932 1.559657714895152 3.6131608724162336 0 0 0
1349 1 23.172380324526326 2.8887693812002615 5.153341774192908 0 0 0
1335 1 2.618865418689261 2.7071953329687517 5.308833277487835 0 0 0
1333 1 -0.24797310287024052 2.8228781804793557 5.377239387283957 0 0 0
686 1 1.1401813425736809 4.307234722141301 3.8095078728157183 0 0 0
1371 1 2.5734873068688042 5.943511578817684 5.102006936479546 0 0 0
1369 1 -0.2898348272504672 5.72422130836377 5.168319850133793 0 0 0
688 1 4.053300121672706 4.372418991132005 3.6694524250038927 0 0 0
1373 1 5.505170008739568 5.652307764899032 5.141888869421662 0 0 0
690 1 6.974478007267489 4.446996237174037 3.7006794503225073 0 0 0
1375 1 8.485994165484048 5.848949866039939 5.047658403377694 0 0 0
692 1 9.98641581725697 4.308782542271416 3.6053915340134375 0 0 0
1377 1 11.457641861601877 5.742074096074872 5.154822493244743 0 0 0
694 1 12.882600489427066 4.288960080576902 3.7454105978538923 0 0 0
1343 1 14.323094970374132 2.7118991795144356 5.219981084862174 0 0 0
696 1 15.725122949970377 4.34837595729901 3.8464388850139297 0 0 0
1379 1 14.373010101505033 5.798311658741907 5.2933983208872 0 0 0
1345 1 17.13753120203998 2.8636513718402883 5.394916326927062 0 0 0
698 1 18.760351590990254 4.275751949313241 3.9083730716862854 0 0 0
1381 1 17.322928817214443 5.755937551386593 5.450007655728956 0 0 0
1347 1 20.360897826749426 2.9735088041774804 5.175498070687743 0 0 0
700 1 21.6872601846674 4.390198608663231 3.7350466230179524 0 0 0
1383 1 20.205134730425673 5.814284614894665 5.338950619298443 0 0 0
702 1 24.5137103565336 4.284829537259674 3.734349188755882 0 0 0
1385 1 23.151789715152866 5.804546779505253 5.2630823984130775 0 0 0
722 1 1.077259311271648 7.380210275783512 3.6925640125749126 0 0 0
1407 1 2.587925246279797 8.716387970911496 5.0690713551453195 0 0 0
1405 1 -0.200667649059107 8.839277268717847 5.3388254117863605 0 0 0
724 1 4.180911378827225 7.183871633210196 3.722166198053632 0 0 0
1409 1 5.628898077268176 8.831283925543843 5.181255123440313 0 0 0
726 1 7.013375694520462 7.231766192662206 3.6271100649283663 0 0 0
1411 1 8.533641928911564 8.86162711548036 5.146484236481673 0 0 0
728 1 10.053056012135425 7.127783745479732 3.6844917053341204 0 0 0
1413 1 11.5034168687224 8.736638655925058 5.146581587721396 0 0 0
730 1 12.958894419737021 7.162008530077815 3.7357017448833494 0 0 0
732 1 15.955259608129218 7.073742420873585 4.014786864540521 0 0 0
1415 1 14.191557200239208 8.778045175270776 5.219881739480815 0 0 0
734 1 18.602757110646277 7.026382147715823 3.792409071348154 0 0 0
1417 1 17.330354308113854 8.676079206982854 5.380780512829534 0 0 0
736 1 21.554836630112938 7.159767243473487 3.6355216856879986 0 0 0
1419 1 20.170007680789652 8.537165197946221 5.225191207404992 0 0 0
738 1 24.42945625938688 7.316241301747777 3.8389201580729315 0 0 0
1421 1 23.03294875997427 8.690390630118353 5.262655919053122 0 0 0
758 1 1.0736764225918014 10.277091109576341 3.6633073824638602 0 0 0
1443 1 2.5981474894815633 11.73479447737044 5.105087633073705 0 0 0
760 1 3.9833561082185085 10.300196137079693 3.6792796142183364 0 0 0
1445 1 5.507250393025103 11.699448531187691 5.168333404629127 0 0 0
762 1 7.038286133439578 10.45108480954289 3.850338026773562 0 0 0
1447 1 8.65720369731417 11.800891503468018 5.145794018863573 0 0 0
764 1 10.13242318105644 10.194473349874217 3.767989183000368 0 0 0
1449 1 11.35713860907823 11.657441272172989 5.445578477719805 0 0 0
766 1 12.942834720014755 10.171806311448742 3.7849876896144465 0 0 0
768 1 15.914609844643547 10.174967267957502 3.905508412876392 0 0 0
1451 1 14.415422378866337 11.555099400077102 5.186788031520087 0 0 0
770 1 18.836018979916076 10.079297584917738 3.9237021459965415 0 0 0
1453 1 17.280399697984574 11.669825316795029 5.348403170273865 0 0 0
772 1 21.655804368239746 9.975785152784681 3.6185063202826373 0 0 0
1455 1 20.227552821270898 11.487920742212939 5.341072528334776 0 0 0
774 1 24.51600042983561 9.997467578396922 3.853908297835586 0 0 0
1457 1 23.087434179390012 11.50241917578769 5.026954635004967 0 0 0
1945 1 -0.2087120028519664 -0.04550820710238712 8.241087351755567 0 0 0
1947 1 2.7610313307014933 -0.007038545155090725 8.255787728428059 0 0 0
1298 1 1.1681795348688402 1.3142407313010567 6.684932404509392 0 0 0
1983 1 2.6249249563879324 2.8386485795187126 8.042551064636326 0 0 0
1949 1 5.7066224284358205 -0.09301905732582574 8.193944534793328 0 0 0
1300 1 4.144291615019826 1.4177069699300735 6.648719438511216 0 0 0
1951 1 8.496431938675517 -0.09485492180040817 8.08057925810116 0 0 0
1302 1 7.054518552694549 1.2717647423077565 6.598200216858046 0 0 0
1304 1 9.987836531926954 1.416841717554389 6.49418128233512 0 0 0
1953 1 11.455865784963883 -0.14299101475695336 7.920655355314787 0 0 0
1306 1 12.816660860207904 1.5287253147820075 6.711748229702794 0 0 0
1308 1 15.679491701675952 1.2840779567149345 6.835126330756068 0 0 0
1955 1 14.109626293080186 -0.1734560772100551 8.048813313394229 0 0 0
1991 1 14.32590080579633 2.7576914255322817 8.12070799337465 0 0 0
1310 1 18.85558319551735 1.4796055970767492 6.652923736087804 0 0 0
1957 1 17.345304093805904 -0.10697645072867656 8.072625238060224 0 0 0
1993 1 17.36644538375489 2.9241410921854265 8.318924020424319 0 0 0
1312 1 21.534975501665794 1.5179637479322068 6.7886604827764465 0 0 0
1959 1 20.16789939861377 -0.050938101284849324 8.030597436726946 0 0 0
1995 1 20.17484195775988 2.910593813514237 8.167293715261806 0 0 0
1961 1 23.11569110026889 -0.020373764282617446 8.045832674494699 0 0 0
1314 1 24.552683655809997 1.4315051244767931 6.623417184214315 0 0 0
1997 1 23.19602510086644 2.7566343945214524 8.084049229116012 0 0 0
1981 1 -0.15696993677118296 2.827907143846111 8.061576622462434 0 0 0
1334 1 1.241775719605484 4.298947225262281 6.511572072470067 0 0 0
2019 1 2.6604175480296552 5.7105507132858735 8.041294536249474 0 0 0
2017 1 -0.12434990240281274 5.703779469535321 7.862504191322195 0 0 0
1985 1 5.588116099608184 2.968970020301372 8.040750627995187 0 0 0
1336 1 4.0313745395064595 4.2536351802902415 6.657705319185928 0 0 0
2021 1 5.573285348942892 5.810501528585556 7.986018586027775 0 0 0
1987 1 8.488379222249426 2.7075817117769434 8.108323672982648 0 0 0
1338 1 7.093897862295061 4.223426967462521 6.684584151615417 0 0 0
2023 1 8.4868863954644 5.917363108638148 8.071113824306305 0 0 0
1989 1 11.42274483943804 2.92381738363423 8.05031780814665 0 0 0
1340 1 9.889037207238477 4.569528235203756 6.603193667642727 0 0 0
2025 1 11.398402394489892 5.859425089749084 8.191325317058888 0 0 0
1342 1 12.933852337701522 4.300353224042088 6.735662049201164 0 0 0
1344 1 15.839640990356603 4.307894955982508 6.730545013811768 0 0 0
2027 1 14.25512171387454 5.773783872194197 8.104272514901782 0 0 0
1346 1 18.66900316196459 4.272133676456822 6.780197653135171 0 0 0
2029 1 17.1528738421407 5.906894761126507 8.236923011033364 0 0 0
1348 1 21.613850436225487 4.329660320237993 6.731643784193831 0 0 0
2031 1 20.2366003870753 5.873636163857654 8.260514504011773 0 0 0
1350 1 24.539118113295945 4.275918494181449 6.579011496115862 0 0 0
2033 1 23.096700898110615 5.698906953482972 8.18904670912278 0 0 0
1370 1 1.2171590283205138 7.186442220341128 6.676356930720928 0 0 0
2055 1 2.699321640441339 8.739672193790248 8.119285815872429 0 0 0
2053 1 -0.25388560795227266 8.609645562524513 7.939173975786501 0 0 0
1372 1 4.0097734146174 7.1666610196503395 6.571083757597478 0 0 0
2057 1 5.528920660480704 8.706904012244838 7.946125676377816 0 0 0
1374 1 6.984526950524607 7.2166092949728435 6.463082984266034 0 0 0
2059 1 8.404207755917218 8.71523645194407 7.966260199912387 0 0 0
1376 1 10.030215713952035 7.247771679223496 6.6713053173669605 0 0 0
2061 1 11.517286501123706 8.698188561787642 8.042199143405762 0 0 0
1378 1 12.867260539178845 7.155185240233079 6.599749897175895 0 0 0
1380 1 15.827134300338425 7.31358800272 6.760387994638427 0 0 0
2063 1 14.303485121331226 8.68840185046031 8.018999294079999 0 0 0
1382 1 18.792761046213073 7.299987614674119 6.899525312814153 0 0 0
2065 1 17.21294232394493 8.769773996395676 8.14507480178329 0 0 0
1384 1 21.74069199385139 7.1581423213183095 6.84140716116819 0 0 0
2067 1 20.208675994179558 8.711805701999987 8.407662576391798 0 0 0
1386 1 24.55388111551672 7.187096194616516 6.812881411410448 0 0 0
2069 1 23.182929175559163 8.757681245245811 8.073106678416389 0 0 0
1406 1 1.3398263767587348 10.282880938716175 6.523374789872922 0 0 0
2091 1 2.566845806926711 11.792632968058099 8.053713568575326 0 0 0
1408 1 4.027013754252497 10.320031016002687 6.4701957425048855 0 0 0
2093 1 5.708336065180269 11.70236397816834 7.999145300243898 0 0 0
1410 1 7.087072696949548 10.305128152923368 6.534397777545305 0 0 0
2095 1 8.57105079639394 11.559693298668114 8.020082815746852 0 0 0
2058 1 7.092713315440077 10.153704840953575 9.378818299343687 0 0 0
1412 1 9.966562310498855 10.033785340126258 6.705560238149116 0 0 0
2097 1 11.37050925587009 11.541980369301985 8.170661700493959 0 0 0
1414 1 12.870918178615117 10.19501118991635 6.731154821206815 0 0 0
1416 1 15.774729382805393 10.156065165676786 6.683222792709137 0 0 0
2099 1 14.309632726765308 11.637567873839556 8.204488959741534 0 0 0
1418 1 18.856387321554408 10.144712168379499 6.717029706061882 0 0 0
2101 1 17.360715710727714 11.696072259030785 8.11206016451723 0 0 0
1420 1 21.535621362969056 9.979791200344797 6.713710250045975 0 0 0
2103 1 20.227779895869684 11.603130070842933 8.197363715194161 0 0 0
1422 1 24.581223945470438 10.234698281031138 6.5479775194618 0 0 0
2105 1 23.006937344014247 11.621666349273818 8.058465082781277 0 0 0
1946 1 1.2181247528649846 1.5131448952622313 9.589268863747522 0 0 0
2595 1 2.745521680543229 0.032958588155020785 10.963434427019493 0 0 0
2631 1 2.689246790632332 2.853146722687988 11.079104606537609 0 0 0
2594 1 1.3508812588857677 1.2637029304508995 12.530461038678036 0 0 0
2716 1 21.67303696051701 10.265920742146553 12.457931729151712 0 0 0
2629 1 -0.24026425355032804 2.9012137241862956 11.175804306660963 0 0 0
1948 1 4.293586112414212 1.4307472961726582 9.41772419394974 0 0 0
2597 1 5.490190029024615 0.04636101299432216 11.020794504962385 0 0 0
2633 1 5.489005986560741 2.8346215999181834 10.933874184502754 0 0 0
2596 1 4.1187428384213405 1.409479717855656 12.545138603254506 0 0 0
2599 1 8.617489773180855 0.1338683284704283 10.955483905793107 0 0 0
1950 1 7.05039748337361 1.4277005336179165 9.579211754521646 0 0 0
2598 1 7.052123940866886 1.4088098188615896 12.423398787000922 0 0 0
1952 1 10.01199006424276 1.4503129053789015 9.438046568523497 0 0 0
2601 1 11.420055120351936 0.14064753617205816 11.005258699391982 0 0 0
2600 1 9.835771274970627 1.5281625409300164 12.551449750854998 0 0 0
2602 1 12.83788941266112 1.4975402993813103 12.474042646925426 0 0 0
1954 1 12.909323480074201 1.4220045335325513 9.628128701669555 0 0 0
1956 1 15.765837597682445 1.4169130703458783 9.568994786369903 0 0 0
2603 1 14.359851550927466 0.011265974304671356 11.108478842836053 0 0 0
2604 1 15.790738362260925 1.5177563678873767 12.441840783396648 0 0 0
1958 1 18.836446119364194 1.34592417681989 9.566041395065243 0 0 0
2605 1 17.235234700084465 -0.04855183350606129 10.986879481558976 0 0 0
2641 1 17.442940697955386 2.835500457104143 10.96585237258583 0 0 0
2606 1 18.735860778132626 1.2609002099767472 12.476327524195982 0 0 0
2607 1 20.242851280775184 -0.05281838591999366 10.929799071458627 0 0 0
1960 1 21.769390145340914 1.4592206578578288 9.619954264411197 0 0 0
2643 1 20.14310834639124 3.008062935748538 11.13518630053205 0 0 0
2608 1 21.667243112416028 1.7298285456709594 12.673849154810371 0 0 0
2609 1 23.136997101192676 0.08098936995117062 11.071268834031237 0 0 0
1962 1 24.649527489841937 1.4802215674574346 9.573811811955885 0 0 0
2645 1 23.183751388114516 2.808843951983517 11.147298632927647 0 0 0
2610 1 24.753780331155742 1.4551599939953814 12.3359174447326 0 0 0
2665 1 -0.2722837730798826 5.788693670808612 11.124955883225951 0 0 0
1982 1 1.131053437099648 4.240913407675289 9.529382007104017 0 0 0
2667 1 2.6681756693522325 5.71172763061488 11.062904846794142 0 0 0
2630 1 1.2573901911586318 4.561554488705249 12.550754539883282 0 0 0
1984 1 4.103109924925683 4.318947747360136 9.468269393310619 0 0 0
2669 1 5.535870302613358 5.842220392956725 10.981519922925582 0 0 0
2632 1 4.1419748373480925 4.5163640010961466 12.483432698908763 0 0 0
2635 1 8.351196855986277 2.894459348803896 11.036469471381396 0 0 0
1986 1 6.988861496921656 4.513782613283493 9.489049930859853 0 0 0
2671 1 8.36492212780809 5.896150537291725 11.019847699021128 0 0 0
2634 1 6.9560572367981806 4.432426226683829 12.384431344000802 0 0 0
2637 1 11.346918692379289 2.900196785627281 10.95572527443552 0 0 0
1988 1 9.69566246078373 4.325896371982309 9.462298092012357 0 0 0
2673 1 11.426230074639683 5.793722696228321 10.886366597233987 0 0 0
2636 1 9.849134994183048 4.298935707259282 12.385674881048148 0 0 0
2639 1 14.346426378575687 2.9553741513095497 11.131173047199653 0 0 0
2638 1 12.704141228850068 4.384580776787005 12.406893271570162 0 0 0
1990 1 12.911988523487995 4.230038087416518 9.522859596570228 0 0 0
1992 1 15.844962498227439 4.2712270221194855 9.571678064360524 0 0 0
2675 1 14.359908575829325 5.857905963241387 10.869515765739582 0 0 0
2640 1 15.822196169346334 4.26474533296127 12.533909729912782 0 0 0
1994 1 18.816588719443434 4.448549245649733 9.621170711728192 0 0 0
2677 1 17.107998137386687 5.797209013707766 11.05649311813808 0 0 0
2642 1 18.801720929989408 4.494150236236221 12.442291321567108 0 0 0
1996 1 21.672568895850844 4.2731517773475245 9.496125875983129 0 0 0
2679 1 20.224455011158174 6.016823801744582 11.06627033494366 0 0 0
2644 1 21.730079590849495 4.3485931210530575 12.470297670412364 0 0 0
2681 1 23.116211092424475 5.765229548540508 11.002622966994947 0 0 0
1998 1 24.60064254404583 4.261475215338539 9.606416051960638 0 0 0
2646 1 24.667260989867795 4.232575461828796 12.561691994271682 0 0 0
2703 1 2.6638356683629807 8.7429812882196 10.875097513396906 0 0 0
2018 1 1.3362957875325427 7.1082202982611795 9.441521251281193 0 0 0
2666 1 1.28438135444509 7.274704407290934 12.33753282396525 0 0 0
2701 1 -0.12572191276043077 8.678060485322623 10.801180765294356 0 0 0
2705 1 5.642135789333145 8.913529637553227 10.85492460614343 0 0 0
2020 1 4.161981549715916 7.18936724213024 9.451799694199414 0 0 0
2668 1 4.259170807990519 7.389040113768965 12.358021464886885 0 0 0
2707 1 8.5700703250818 8.678561737304245 10.984513017609533 0 0 0
2022 1 6.953504770338325 7.37718725532611 9.391332173979428 0 0 0
2670 1 7.000095784333934 7.220325757239174 12.452953953501728 0 0 0
2709 1 11.52213265632618 8.741086598724804 11.01442019699126 0 0 0
2024 1 9.926859170888235 7.304470050045104 9.510253809990415 0 0 0
2672 1 9.974304238539798 7.162917644934159 12.457880861059726 0 0 0
2026 1 12.977501173830877 7.335427813164679 9.548134552657293 0 0 0
2674 1 12.818996618094927 7.133078190092694 12.386599082929745 0 0 0
2711 1 14.392518993543671 8.769958207730577 11.044557863078179 0 0 0
2028 1 15.892131323521461 7.39594116326927 9.683670210796906 0 0 0
2676 1 15.715115362702257 7.196617915750329 12.47313707852518 0 0 0
2030 1 18.675034652250982 7.417076664071682 9.947908728775026 0 0 0
2713 1 17.197050298653366 8.744264839495372 11.30975542930208 0 0 0
2678 1 18.66043311848562 7.218491013737676 12.700325340707792 0 0 0
2032 1 21.759973606692224 7.410432565216538 9.714268385504928 0 0 0
2715 1 20.28262513529132 8.637175772903738 11.299052565963521 0 0 0
2680 1 21.808650092390486 7.247654624803904 12.575824076395826 0 0 0
2034 1 24.500232469222876 7.248441213254188 9.539549513856759 0 0 0
2717 1 23.178185965639376 8.71687969335045 11.213107020556583 0 0 0
2682 1 24.585621807199995 7.316287302602244 12.525713883777367 0 0 0
2054 1 1.237344156043317 10.192960301583518 9.511750082773192 0 0 0
2739 1 2.7118747896604014 11.840473384911368 11.073196531257341 0 0 0
2702 1 1.255783836043557 10.189177834335025 12.339900080666217 0 0 0
2741 1 5.5083122191150276 11.592496772456604 11.013337017097633 0 0 0
2056 1 4.096933596049461 10.373779930802794 9.40304853473101 0 0 0
2704 1 4.057317765606198 10.194904732599905 12.48963278842436 0 0 0
2743 1 8.609003872737887 11.623539724489818 10.961029025902208 0 0 0
2706 1 6.9963069019975315 10.19728589550925 12.413502149740575 0 0 0
2745 1 11.466592451596343 11.64578228626991 11.02580896806047 0 0 0
2060 1 10.117603858705419 10.035901377880245 9.57006175694352 0 0 0
2708 1 9.973509165400502 10.12667764730595 12.406764274673478 0 0 0
2062 1 12.836485428735276 10.137018428537235 9.58383555560679 0 0 0
2710 1 12.867594204964341 10.243904122451786 12.542296871901303 0 0 0
2064 1 15.941341168163586 10.23566587450145 9.682572845871112 0 0 0
2747 1 14.282149354695198 11.635544946845753 10.956047204529492 0 0 0
2712 1 15.703186490822457 10.293777382550754 12.472998935697795 0 0 0
2066 1 18.65949812272366 10.371739917563495 9.769425854676784 0 0 0
2749 1 17.280054692841684 11.800789881738448 11.237215068585463 0 0 0
2714 1 18.7292698028399 10.237980929155494 12.548874009532327 0 0 0
2751 1 20.160496522634972 11.941384187075176 11.212367149694158 0 0 0
2068 1 21.715498918620604 10.239364593611597 9.618618457238222 0 0 0
667 1 25.956087411779205 -0.0645837140813511 2.359068515369325 0 0 0
2737 1 -0.21077556051165658 11.63464396233249 10.845894750708348 0 0 0
1315 1 25.92388442087587 0.014579181139019681 5.118500898067329 0 0 0
1423 1 25.880999098622123 8.61202468063118 5.23614464351851 0 0 0
1459 1 25.953399550953748 11.674906845977366 5.163914856091163 0 0 0
1441 1 -0.13294908429019614 11.720950396084628 5.192314621666637 0 0 0
2107 1 25.894976034343042 11.600715512223859 8.155210041884889 0 0 0
2089 1 -0.04108104573463578 11.641518103760959 7.941378454556874 0 0 0
2683 1 25.911694149947063 5.830489596913551 11.060001234042552 0 0 0
3242 1 1.20421328875373 1.5603402076137307 15.458062387011957 0 0 0
3243 1 2.852050548197315 -0.18094365898107814 14.09859221458885 0 0 0
3279 1 2.487249110331197 2.857333309625333 14.013656262851196 0 0 0
3241 1 -0.1536369614300052 -0.009075839250155593 13.951450131090368 0 0 0
3244 1 4.224236920174626 1.3717889656179598 15.481261919255951 0 0 0
3245 1 5.554946837322955 0.0013390903327658021 13.901554868401478 0 0 0
3281 1 5.488363584394635 3.0553612212845818 13.975644410875873 0 0 0
3246 1 7.03160407022116 1.4890025392021162 15.31147086512047 0 0 0
3247 1 8.543794655384175 -0.03745689041993244 14.073047667242138 0 0 0
3248 1 10.015931942835437 1.3252909792663614 15.601177606088903 0 0 0
3249 1 11.348133672029208 0.0979362758238222 13.896630681302417 0 0 0
3285 1 11.462460507649572 2.821299684847096 13.947831482021195 0 0 0
3250 1 13.018156229342944 1.4461080963308608 15.42157480129185 0 0 0
3251 1 14.443936326347545 -0.15137676663209182 13.84197511931198 0 0 0
3252 1 15.808374243917992 1.464624671540664 15.325257138673797 0 0 0
3287 1 14.253467779047282 2.9581914506623233 13.889921311470776 0 0 0
3253 1 17.34350331482738 0.03940950870385396 14.008064235797535 0 0 0
3254 1 18.64448964115976 1.3678046018505552 15.582679645945259 0 0 0
3289 1 17.495197075987534 2.7447600842452675 13.941231098929354 0 0 0
3256 1 21.67423598426375 1.419795341494511 15.474247278305244 0 0 0
3291 1 19.892823789000758 2.739808974524246 13.989310798277348 0 0 0
3255 1 20.329116526426343 -0.07320587957808519 13.820982590132713 0 0 0
3257 1 23.28031410172475 0.13930818638883108 13.811481973196793 0 0 0
3258 1 24.539292637639036 1.4727291796849111 15.453906239757993 0 0 0
3293 1 23.25912595316977 2.99483996947005 14.034147332469157 0 0 0
3278 1 1.2114210465316178 4.4366157259241605 15.372098915710017 0 0 0
3315 1 2.7956024807949453 5.762492092151638 14.060732203789383 0 0 0
3313 1 -0.2392567586428289 5.744176663382702 13.950740621660762 0 0 0
3280 1 4.207920694281916 4.3577750529135395 15.547504898135893 0 0 0
3317 1 5.619481230722578 5.74982320348909 13.975066050748897 0 0 0
3283 1 8.375716514913165 2.9889025700991882 13.923242493313955 0 0 0
3282 1 7.016209006401621 4.359483806588534 15.415049780615774 0 0 0
3319 1 8.339804438666716 5.762887571806377 13.984333683512865 0 0 0
3284 1 9.970349339481855 4.2028048235110775 15.29724364328634 0 0 0
3321 1 11.2437462939111 5.696178794045288 13.834970181846494 0 0 0
3286 1 12.776357855002471 4.414889097490401 15.314425187354525 0 0 0
3288 1 15.707670660521373 4.373191837964472 15.301759035059513 0 0 0
3323 1 14.231028290152032 5.778603755247497 13.939711529511694 0 0 0
3290 1 18.679099218632192 4.412627122312176 15.446292492780133 0 0 0
3325 1 17.09705557526695 5.899848724290834 13.904726249520772 0 0 0
3292 1 21.629453035246712 4.274011707587089 15.385122777205492 0 0 0
3327 1 20.18597633974371 5.897542451018663 14.091986208619952 0 0 0
3294 1 24.638910102067015 4.335163174620426 15.460137573596365 0 0 0
3329 1 23.146040784444146 5.710011256853442 14.088353291831744 0 0 0
3314 1 1.1667083211315668 7.220787450535784 15.458225785261236 0 0 0
3351 1 2.71052635997489 8.612900486480264 13.801553975547845 0 0 0
3349 1 -0.1789591862715681 8.620461618084935 13.859612979031485 0 0 0
3316 1 4.141704137303816 7.245478856476229 15.390196342417308 0 0 0
3353 1 5.6470879064643595 8.755248904389328 13.892797998498406 0 0 0
3318 1 7.152133580679098 7.296499202037508 15.418002944834672 0 0 0
3355 1 8.525331346533244 8.63824004278553 13.76136404734633 0 0 0
3320 1 9.81767321480259 7.222076240888512 15.280566907338935 0 0 0
3357 1 11.431346867853577 8.614755992718882 13.910973486343726 0 0 0
3322 1 12.79456714213793 7.272482309300937 15.374777042870722 0 0 0
3324 1 15.610489749256649 7.2897762298802125 15.37591438912653 0 0 0
3359 1 14.064232391516237 8.67475022164843 13.947502751604368 0 0 0
3326 1 18.6545059892838 7.297796422409735 15.332973181805327 0 0 0
3361 1 17.12147608980224 8.701153957795 13.871644696026069 0 0 0
3328 1 21.71401773347046 7.207559509505602 15.50025099621826 0 0 0
3363 1 20.441203314206774 8.58812805016039 14.0428830689653 0 0 0
3330 1 24.590478758864233 7.361159239843829 15.496461561998677 0 0 0
3365 1 23.083540931557273 8.822030784567712 14.014083143415359 0 0 0
3350 1 1.2723653958318524 10.104172857410004 15.31878310883701 0 0 0
3387 1 2.5879938646706644 11.590185625263443 13.94415827445545 0 0 0
3385 1 -0.15636832747601215 11.54867809478365 13.745942665155681 0 0 0
3352 1 4.0484771170801155 10.169301215309632 15.208851305634886 0 0 0
3389 1 5.598401370087434 11.794616810610497 13.886838382916425 0 0 0
3354 1 7.014685811448028 10.2943035202829 15.292442376904212 0 0 0
3391 1 8.455335214733958 11.747113473891272 13.908014938166271 0 0 0
3356 1 9.80003555759497 10.28439673374703 15.362145383772297 0 0 0
3393 1 11.416317097649445 11.698574461218735 13.737737711919573 0 0 0
3358 1 12.883180358724102 10.296465798009661 15.444455233708723 0 0 0