LAMMPS data file via write_data, version 2 Aug 2023, timestep = 1100000, units = metal

11664 atoms
1 atom types

-0.3706503638340095 52.28413924400844 xlo xhi
-0.37063385570379737 52.2841557521397 ylo yhi
-0.3706586677833954 52.28413094005809 zlo zhi

Masses

1 55.847

Atoms # atomic

2 1 1.2130374954558352 1.426477819090114 0.48657926776169036 0 0 0
651 1 2.717582055318869 0.20986966263342843 2.0512851558009624 0 0 0
687 1 2.6588418974002552 2.8311323264725563 2.108176799467084 0 0 0
685 1 -0.16841135804213225 2.914652159465069 2.0248120995136936 0 0 0
4 1 4.1650476485857455 1.4714783949491317 0.5765054616855063 0 0 0
653 1 5.570532594543116 -0.022842595893575346 2.017972844613403 0 0 0
6 1 6.9821778563902885 1.448732673022835 0.609733598773238 0 0 0
655 1 8.492230616747536 0.0679272722198806 2.1614367843861935 0 0 0
691 1 8.454150798806038 2.8257330634199347 2.092799730840635 0 0 0
8 1 10.060919009271453 1.5120534441399338 0.6429877054833422 0 0 0
657 1 11.483132716949779 0.1437743006129707 2.0954862655845106 0 0 0
693 1 11.454855380748608 2.9270965816364662 2.2460448358493346 0 0 0
10 1 12.941620745912708 1.413853718969952 0.6527998008882712 0 0 0
12 1 15.757898397985905 1.4264289011444977 0.4784186490385175 0 0 0
659 1 14.458538779670427 -0.07639714455540114 2.1765671627338556 0 0 0
14 1 18.42647093170485 1.4831669898948616 0.524167757459163 0 0 0
661 1 17.225421593784972 -0.20595454293982207 2.0010851067349753 0 0 0
16 1 21.62046563318566 1.5181282103840372 0.485793291853433 0 0 0
663 1 20.195418373364898 0.045062858471655975 2.053874538211645 0 0 0
18 1 24.379615356791984 1.6965581704279393 0.7686601042178256 0 0 0
665 1 23.163801139524413 -0.008202854429279705 2.088475163722648 0 0 0
701 1 22.980219365525514 3.0310856567691418 2.2451505198811996 0 0 0
667 1 25.76477107913405 0.0484636780449324 1.9478646673845734 0 0 0
38 1 1.3035212429811749 4.502613951686865 0.7948637798943492 0 0 0
723 1 2.6958005682076482 5.9376862098915675 2.142729052821651 0 0 0
721 1 -0.17561517574000302 5.828490984107519 2.269374447683534 0 0 0
689 1 5.62034072825081 2.8068926739168054 2.125585854923289 0 0 0
40 1 4.0687078659962745 4.365145424665758 0.695533560708649 0 0 0
725 1 5.679512108202494 5.92768039904276 2.0467231911671018 0 0 0
42 1 6.971036609603005 4.279199779874255 0.7431962108809271 0 0 0
727 1 8.627260902821051 5.935661720948207 2.2589764709583102 0 0 0
44 1 9.939217682582882 4.389212868489347 0.8021143907935095 0 0 0
729 1 11.323021014142736 5.874304563865069 2.2275860289471305 0 0 0
46 1 12.837126076015137 4.494818601563046 0.7762533695389426 0 0 0
695 1 14.468219747271792 2.9021044244577583 2.204034263150805 0 0 0
48 1 15.703268440696231 4.413271848939234 0.6451251397838746 0 0 0
731 1 14.281647237123257 6.0055154608677785 2.05578912313822 0 0 0
697 1 17.1705219096482 3.0656759726551295 2.008279477835535 0 0 0
50 1 18.614350583582986 4.490337334554225 0.42515067626174385 0 0 0
733 1 17.25174638394937 5.7995457999196685 2.2019368944195534 0 0 0
699 1 20.073547941962744 2.930985946953621 1.8668913723340972 0 0 0
52 1 21.494732177182943 4.504551480331604 0.4568662045773184 0 0 0
735 1 19.997936630326226 5.826178499351053 1.9524560650330876 0 0 0
54 1 24.3397705394092 4.396318887557141 0.6814105215745985 0 0 0
737 1 22.838508030218375 5.922902706300733 2.1733663550663143 0 0 0
74 1 1.0379724643926185 7.342901277301457 0.7366732807141787 0 0 0
759 1 2.6698862048954117 8.725451636604058 2.1517386450541576 0 0 0
757 1 -0.2870704863271967 8.971062405477278 2.329358164004915 0 0 0
76 1 4.302162418027326 7.356498326820439 0.5776646330023465 0 0 0
761 1 5.586433545383312 8.823341077717057 2.3002911175471947 0 0 0
78 1 7.100151269400066 7.338956570165248 0.6596896536270107 0 0 0
763 1 8.40466509146123 8.69777684474329 2.1763936152621595 0 0 0
80 1 10.072885034870932 7.2842747565693955 0.6370050763368824 0 0 0
765 1 11.322710066151823 8.831284207791663 2.173587075149591 0 0 0
82 1 12.798712981697259 7.367543963547848 0.7824189665632211 0 0 0
84 1 15.646147945645584 7.27275350799473 0.46837101413739635 0 0 0
767 1 14.504043377288902 8.871150790310919 2.135641112269937 0 0 0
86 1 18.434289613939217 7.17241269152557 0.47874824907046465 0 0 0
769 1 17.112837846089537 8.786485018887177 2.0263957046425225 0 0 0
88 1 21.371870803383047 7.16678837154374 0.6172511356932245 0 0 0
771 1 20.07138601585515 8.835970525789026 1.8819449959490502 0 0 0
90 1 24.486161151849238 7.080526638680831 0.8885412289127459 0 0 0
773 1 23.019707423448455 8.687060930631509 2.221734957439218 0 0 0
2755 1 25.94979250169233 12.092842788858354 10.73992343238174 0 0 0
110 1 1.1706913410765938 10.306952189110257 0.5677629003486586 0 0 0
795 1 2.4523957989614695 11.557225697573925 2.1294417363489138 0 0 0
112 1 4.214450408839156 10.336218949259258 0.5195790696464115 0 0 0
797 1 5.55158240972938 11.761498875937033 2.241158368667649 0 0 0
114 1 6.993710516251573 10.124213130247684 0.7490269119062118 0 0 0
799 1 8.579995215017387 11.743427264961312 2.4985107526002404 0 0 0
116 1 9.89239076576507 10.29965182725434 0.8217509047294074 0 0 0
801 1 11.510418182995666 11.818720287886718 2.140814914546701 0 0 0
118 1 12.816383754488864 10.135723164422355 0.8318184301673817 0 0 0
120 1 15.738236694653882 10.313919291266226 0.5557620477525779 0 0 0
803 1 14.360845957679945 11.681881486221707 2.108504499718049 0 0 0
122 1 18.47083350226516 10.342427409596581 0.6370931739094565 0 0 0
805 1 17.177168161529128 11.822252534671229 2.1676423648473016 0 0 0
124 1 21.518154996710358 10.456397415759257 0.5638268702322037 0 0 0
807 1 20.074836189669323 11.788023847731722 2.0366032407746175 0 0 0
126 1 24.552825859604813 10.195511356260688 0.8682793092689862 0 0 0
809 1 23.042007175021006 11.836285329313137 2.1390604460809786 0 0 0
1299 1 2.4344423641474977 -0.028900968943973482 5.149105391480508 0 0 0
650 1 1.0864934011194098 1.5044884937716259 3.5834217706293936 0 0 0
1333 1 -0.2240102503818779 3.0008608006784105 5.093873637831843 0 0 0
652 1 4.134589336220372 1.3978193124748677 3.685669140764963 0 0 0
1301 1 5.465030426341464 0.22349207499149637 5.229121313099581 0 0 0
1303 1 8.581347781191281 -0.022872588814137562 5.131206990525788 0 0 0
654 1 7.031872967304435 1.4337838998614951 3.790525255568923 0 0 0
1339 1 8.470402869320175 2.9753641561222017 4.987070891273318 0 0 0
656 1 9.997342814370276 1.6307865468926153 3.6950560666445345 0 0 0
1305 1 11.442846123990101 -0.028261499515711386 5.2249868771055255 0 0 0
1341 1 11.57085993504209 2.9873659936286727 5.02740720379338 0 0 0
658 1 12.86635128839787 1.4612114136298877 3.602816079991716 0 0 0
660 1 16.015089363224533 1.209803990755088 3.6324844696984284 0 0 0
1307 1 14.329391420201794 -0.033831347019674385 4.955863348651694 0 0 0
662 1 18.639060817222145 1.5263296243189473 3.405477005858833 0 0 0
1309 1 17.37117001627039 -0.04992319611537266 5.128806594497914 0 0 0
1345 1 17.369167812403266 2.883124964900209 5.128108182245816 0 0 0
1311 1 20.104066503791476 -0.14802015954864106 4.998914542803557 0 0 0
664 1 21.361417669356747 1.5167285440789835 3.653663849944744 0 0 0
1347 1 20.068713355216385 3.0234538205249697 5.143988553969186 0 0 0
1313 1 23.074238388236054 0.010593015199347577 5.010663000562752 0 0 0
666 1 24.551464151303396 1.4198458196164383 3.812700912255461 0 0 0
1351 1 25.917265759110787 3.1887451902700747 4.997834242441925 0 0 0
1335 1 2.593650553900439 2.971787192854964 5.234386471779719 0 0 0
686 1 1.2707846544915133 4.261870174160421 3.5438553754775066 0 0 0
1371 1 2.6127381274680297 5.834958791959096 4.997199646112779 0 0 0
1337 1 5.550632108766754 2.94953831159551 4.972321918328284 0 0 0
688 1 4.155185732900043 4.220314927087728 3.4222085016560206 0 0 0
1373 1 5.67829810968842 5.836258253887358 4.958624955752461 0 0 0
690 1 7.135218928080447 4.4560117262027985 3.562889485354124 0 0 0
1375 1 8.477175887157475 5.898920588491746 4.978441195069984 0 0 0
692 1 9.87088222100493 4.351197284610553 3.5139845192672445 0 0 0
1377 1 11.49742303418912 5.7509508029767185 5.047030209950289 0 0 0
694 1 13.021955618010256 4.4408810943022745 3.4410257230382078 0 0 0
1343 1 14.267628779994725 2.994053393259079 4.958126206689269 0 0 0
1379 1 14.409058049791675 5.940163720528049 5.146104973005194 0 0 0
696 1 15.707162079958657 4.300070338115054 3.7046549305887932 0 0 0
698 1 18.623414078059252 4.332088169237458 3.6577058211545825 0 0 0
1381 1 17.17441998575542 5.834769395989694 4.948054453858352 0 0 0
700 1 21.38052117353041 4.248898613226423 3.5639165331378604 0 0 0
1383 1 20.152661829053976 5.863454469445801 4.970599946277188 0 0 0
1349 1 23.017504350063522 2.9814166902587527 4.965382407676463 0 0 0
702 1 24.42109057435103 4.536859723521495 3.5890157050517413 0 0 0
1385 1 22.909101332463102 5.846101455067868 4.974795328146667 0 0 0
722 1 1.3356062852914137 7.424591900807827 3.6860785195105725 0 0 0
1407 1 2.6869531743728796 8.810289314600832 5.117888175663736 0 0 0
1405 1 -0.3133542356264064 8.74220709416476 4.937751398698906 0 0 0
724 1 4.107837284141697 7.2567674284343795 3.745470100545095 0 0 0
1409 1 5.6116313691425574 8.75864429951104 5.063569883486007 0 0 0
726 1 6.967597394317632 7.365478147796931 3.5889475430763063 0 0 0
1411 1 8.38014556683428 8.787739348536897 4.961431891458898 0 0 0
728 1 9.99509166227345 7.402959385915733 3.752095618653769 0 0 0
1413 1 11.43483311738112 8.751246819276275 5.086175750906321 0 0 0
730 1 12.83937990188662 7.348275823080476 3.5086065260837134 0 0 0
732 1 15.845591216690018 7.424779504445506 3.547542361261195 0 0 0
1415 1 14.322746856464777 8.846462494899983 4.988533713666638 0 0 0
734 1 18.68722965253103 7.356416349076095 3.3444255240444716 0 0 0
1417 1 17.400295914866504 8.700018347265102 4.953029423451551 0 0 0
736 1 21.348453110220937 7.378248506713675 3.413150404786712 0 0 0
1419 1 19.975841266035953 8.948787890209527 4.887433474987303 0 0 0
738 1 24.52143407637841 7.021817183394702 3.5760956807608735 0 0 0
1421 1 22.924970319632106 8.579972880262048 4.787288720276023 0 0 0
758 1 1.0928964425845897 10.37982734312243 3.751637264264293 0 0 0
1443 1 2.5602677638020084 11.780263455466892 5.330532740755143 0 0 0
1441 1 -0.36966728369893154 11.774817791853044 5.255960009391773 0 0 0
760 1 4.08447509809968 10.327210119862551 3.6125884039239287 0 0 0
1445 1 5.521518875652072 11.795602343200276 5.107947666262267 0 0 0
762 1 6.9927259397849015 10.279967584595708 3.6991251103451424 0 0 0
1447 1 8.486048999989693 11.743070833112546 5.158227835868504 0 0 0
764 1 9.988457148123985 10.227824428057612 3.835107126993287 0 0 0
1449 1 11.486909086571739 11.781286467063111 5.045166777370513 0 0 0
766 1 12.819790450707904 10.257274898802205 3.6391450758115944 0 0 0
768 1 15.921751799816644 10.238093343081541 3.5929955151045165 0 0 0
1451 1 14.338686066674269 11.800711488250398 4.938172183293612 0 0 0
770 1 18.507385122010632 10.303031196977729 3.504583761034272 0 0 0
1453 1 17.133276169910847 11.780814318712947 5.02468067703797 0 0 0
772 1 21.62533948941617 10.217005447975433 3.3986436377959737 0 0 0
1455 1 20.078931845830947 11.762550469193267 5.035250204843716 0 0 0
774 1 24.509718217934164 10.387484018479471 3.4952743528121775 0 0 0
1457 1 22.94002389692084 11.522839521155218 5.050709282370691 0 0 0
1947 1 2.460305466105291 0.004457758478734697 8.19141664628071 0 0 0
1298 1 1.1369090158693618 1.4473338657525097 6.59207700471273 0 0 0
1981 1 -0.22787950113974204 3.061565612370583 7.999746980437093 0 0 0
1946 1 1.1181431364333596 1.5712523953226987 9.572037781715135 0 0 0
1945 1 -0.2834363319880465 0.11605362974564482 8.161169766152277 0 0 0
1949 1 5.62355977055419 0.1692533533726407 8.046927091869952 0 0 0
1300 1 3.9800143474647482 1.4766984546738384 6.681956606295631 0 0 0
1948 1 4.109588599268767 1.468057915496744 9.330126294777086 0 0 0
1951 1 8.539227342037028 0.07829996970955211 8.21931347370002 0 0 0
1302 1 7.103108931366094 1.603514805547446 6.555271243013846 0 0 0
1950 1 7.1562868258881425 1.5052819900036338 9.585027565826298 0 0 0
1304 1 10.076164508822965 1.534839222546831 6.433260037567466 0 0 0
1953 1 11.440967585488746 -0.07894918656302391 8.12619695356029 0 0 0
1989 1 11.486907252378607 2.7866616679108445 8.061478799817966 0 0 0
1306 1 12.95355020011712 1.3799846816532242 6.506483831643058 0 0 0
1308 1 15.711738978579213 1.4411520037923207 6.343107137060412 0 0 0
1955 1 14.564323277169095 -0.00180676625942916 8.038170550597515 0 0 0
1991 1 14.536567313440676 2.819455343866389 8.084217137654484 0 0 0
1954 1 12.854349085674828 1.3002673539064968 9.485255584059868 0 0 0
1956 1 15.950823284395504 1.387631064601786 9.516349089991174 0 0 0
1310 1 18.90621088755478 1.359150086496886 6.56166278448367 0 0 0
1957 1 17.26217248830295 -0.05087657481361574 7.867196968267637 0 0 0
1958 1 18.670995447904794 1.3740820421893896 9.508458750540862 0 0 0
1993 1 17.337555154474778 2.791116344681197 7.837609637314776 0 0 0
1312 1 21.546503934531582 1.4117538060378534 6.388570819531525 0 0 0
1959 1 20.281387565963655 -0.153814452039201 8.045636463637802 0 0 0
1961 1 23.254429693258658 -0.0695567425080506 7.952188116812424 0 0 0
1314 1 24.570021475397567 1.601288740679246 6.252510305278801 0 0 0
1997 1 23.13055617781113 2.7684437918591134 7.971083406630322 0 0 0
1962 1 24.696665535624312 1.2618192197452387 9.385229087684845 0 0 0
1999 1 25.937172318460902 2.8928653086546428 7.817480951375437 0 0 0
1983 1 2.6491552122750153 3.2374286664465597 8.170561805203674 0 0 0
1334 1 1.1379027317706334 4.36211407317763 6.5703125348637155 0 0 0
2019 1 2.572709821874174 5.892091342206802 8.002852600179406 0 0 0
2753 1 22.938125460021276 11.710053991161052 10.786057245788987 0 0 0
1985 1 5.55830506960312 2.943422200241025 7.95903061785407 0 0 0
1336 1 4.1202394092786765 4.4231051809199835 6.575187553279112 0 0 0
2021 1 5.609135915847751 5.824149026109282 7.986013814310633 0 0 0
1984 1 4.168828722938431 4.549364148248974 9.530893722862608 0 0 0
1987 1 8.656553928567137 2.8909600863605465 8.076163545225045 0 0 0
1338 1 7.07951627209522 4.428231451380353 6.419431705107007 0 0 0
2023 1 8.526218458416018 5.965957327930573 8.024347608927728 0 0 0
1340 1 9.976812684241153 4.3224781517229065 6.513889159526588 0 0 0
2025 1 11.391750090311442 5.713781069829919 7.930336382714197 0 0 0
1988 1 9.966857620869089 4.491873770482687 9.412100188349187 0 0 0
1342 1 12.935569295920128 4.172594123249725 6.671588982684119 0 0 0
1344 1 15.839751340701245 4.30064426823849 6.382271173279186 0 0 0
2027 1 14.450327287326067 5.830719238142107 7.942076388016984 0 0 0
1990 1 12.916123573357078 4.183566562670395 9.585503180542256 0 0 0
1992 1 15.886417157662525 4.251282953147695 9.579477023972823 0 0 0
1346 1 18.621798746848675 4.433689806445143 6.468387523585302 0 0 0
2029 1 17.208507955765683 5.753657680551445 8.02997457422548 0 0 0
1995 1 20.199810214958596 2.8302183464255695 8.02226069893879 0 0 0
1348 1 21.6005983007158 4.342624692262271 6.532512628574307 0 0 0
2031 1 20.15329344492561 5.821644157085237 8.007405067927424 0 0 0
1996 1 21.746396100547635 4.356346354972975 9.285898071467951 0 0 0
1350 1 24.383413346550988 4.410854119744003 6.518628112655477 0 0 0
2033 1 22.92631082006851 5.920803455904137 7.9097715118474206 0 0 0
1998 1 24.518909939971625 4.375976436158121 9.332114388621566 0 0 0
2035 1 25.818203251858705 5.901764574942392 7.897983100656125 0 0 0
1370 1 1.1399851832759338 7.342728291194821 6.7165578240888255 0 0 0
2055 1 2.5873605783630538 8.718814658506556 8.147998013066857 0 0 0
2018 1 1.142043969254197 7.347134859967831 9.469436323557952 0 0 0
1372 1 4.065404531793362 7.425723856356523 6.581734230343643 0 0 0
2057 1 5.623507245324357 8.783430015007282 7.948557566467958 0 0 0
1374 1 7.0958242835514405 7.2696246054634255 6.535892654291621 0 0 0
2059 1 8.615836432010271 8.756948970438442 7.932986190780529 0 0 0
1376 1 9.919212137895698 7.213559108289309 6.406152753225961 0 0 0
2061 1 11.33956110453633 8.897830067743019 7.919502747539362 0 0 0
2024 1 10.131973498096057 7.224603468234887 9.414479412652176 0 0 0
1378 1 12.847424345253607 7.334459787240162 6.622841122039814 0 0 0
1380 1 15.913558261911358 7.213802166858885 6.537878204013942 0 0 0
2063 1 14.457442205685663 8.734294726519247 7.876586516745814 0 0 0
2026 1 12.876207257918317 7.260479694398041 9.18303383188328 0 0 0
2028 1 15.82213264624593 7.2957702346358255 9.320997520548405 0 0 0
1382 1 18.655596130197132 7.266445705161142 6.386362143079566 0 0 0
2065 1 17.31500537714705 8.728409292616863 7.957913091703951 0 0 0
2030 1 18.63748191711133 7.2625456772558366 9.302905455206492 0 0 0
1384 1 21.38266515253136 7.447031790633635 6.506891887717272 0 0 0
2067 1 19.98598225870663 8.873891674117607 7.9399853581633995 0 0 0
2032 1 21.46404161473786 7.416693496847213 9.396454744119117 0 0 0
1386 1 24.437805636548866 7.321949628367541 6.431670970278695 0 0 0
2069 1 23.03761090619792 8.798876643591283 7.696591179442972 0 0 0
2034 1 24.31705084067576 7.437618347657439 9.179545104913373 0 0 0
1406 1 1.0591250331001607 10.10484848026691 6.544192318774885 0 0 0
2091 1 2.515912460093434 11.879095057808929 8.145803430692306 0 0 0
2089 1 -0.27701650798482497 11.718467764981556 7.833732866623755 0 0 0
1408 1 4.048042048753462 10.212366404699416 6.686031357598737 0 0 0
2093 1 5.562684464796096 11.518134681129212 8.134713394877297 0 0 0
2056 1 3.9794718236721103 10.271832265150561 9.495549632323772 0 0 0
1410 1 7.0649142024154825 10.282042278460034 6.519413999515435 0 0 0
2095 1 8.422643365017557 11.681183673151304 7.924626697803566 0 0 0
1412 1 9.804114121723476 10.312087039376314 6.509349472566318 0 0 0
2097 1 11.234433651675587 11.550711110485727 7.9605552990029675 0 0 0
2060 1 9.856782515419733 10.1504663435228 9.43261961809037 0 0 0
1414 1 12.905934761099278 10.311590693556722 6.4350949559289985 0 0 0
2062 1 12.96330041128859 10.314636989625425 9.332374025585333 0 0 0
1416 1 15.891831240173165 10.109153481990347 6.440105295984004 0 0 0
2099 1 14.355696222805188 11.619277401732608 7.787231134857372 0 0 0
2064 1 15.771134264985058 10.238812310102253 9.349692448743898 0 0 0
1418 1 18.689296079781 10.33272887778415 6.420908184665675 0 0 0
2101 1 17.18160759539631 11.684264767934863 7.978951594602368 0 0 0
2066 1 18.662861484132655 10.459468723664992 9.548144014814623 0 0 0
1420 1 21.526835221367218 10.163551660954107 6.362246088352058 0 0 0
2103 1 19.97911714611361 11.793197730193148 8.036715658076325 0 0 0
2068 1 21.67777668084412 10.223517888984889 9.399277236666759 0 0 0
1422 1 24.551208749756327 10.223468766137051 6.30322273807194 0 0 0
2105 1 22.992482124530873 11.710131252871227 7.906442149042984 0 0 0
2107 1 25.82077354976806 11.8053684571135 7.865122834260264 0 0 0
2595 1 2.648204917215466 0.10967154777401189 10.880718193314992 0 0 0
2594 1 1.0184620734228238 1.5242606458749373 12.233444755113283 0 0 0
2631 1 2.6195356549084607 3.0366340394029794 10.827711356162112 0 0 0
2597 1 5.637269846984016 -0.08311539192225842 10.876254316339915 0 0 0
2596 1 4.115138260802111 1.50324087555143 12.500444749649098 0 0 0
2599 1 8.446262852923462 -0.07040810908928241 10.874782302367223 0 0 0
2598 1 7.046390724214025 1.4407270526539506 12.35583293845779 0 0 0
1952 1 9.9900476753917 1.4543252110423133 9.527784439475457 0 0 0
2601 1 11.497250129343055 -0.1139247790621572 10.840649504047642 0 0 0
2600 1 10.065499639570866 1.3005897085065532 12.39551200215194 0 0 0
2602 1 12.872891795931617 1.5859460427440466 12.469756249659808 0 0 0
2637 1 11.383909660292007 3.009529222960328 11.195482537855579 0 0 0
2603 1 14.32848442659738 -0.026916646767124408 11.064769970543404 0 0 0
2604 1 16.074379844348872 1.1120266261004945 12.450921761657924 0 0 0
2639 1 14.512195643863775 2.690485850343178 10.935089394785892 0 0 0
2605 1 17.313404329157283 -0.19478632416798025 10.797615339297346 0 0 0
2606 1 18.712331358750117 1.2076957235679457 12.490102391381535 0 0 0
2641 1 17.37574953396693 2.8223250238407864 11.083459424157946 0 0 0
1960 1 21.60525213330332 1.3823312357595539 9.437869992187162 0 0 0
2607 1 20.124631773383044 -0.14303553907040775 10.751736358990799 0 0 0
2608 1 21.448044294881043 1.2298622353724178 12.351254173918068 0 0 0
2643 1 20.015196897956624 2.8383612193708063 10.875947448204004 0 0 0
2609 1 23.205811261042676 -0.05625738088595755 10.713261357192227 0 0 0
2610 1 24.488464588326714 1.4642818474508839 12.222942846864834 0 0 0
2647 1 25.9406532950888 2.843960599747242 10.876074780260964 0 0 0
2718 1 24.54279746275398 10.20177274276657 12.211402799646443 0 0 0
1982 1 1.1983929290936635 4.565931182938451 9.483528979427197 0 0 0
2667 1 2.6786361248141035 5.816782323481054 11.004333061309062 0 0 0
2630 1 1.3097066509425728 4.440654649778154 12.45003074025473 0 0 0
2633 1 5.54853859656381 2.9847040310599633 10.809645165058942 0 0 0
2669 1 5.693984212362173 5.845974423551987 10.871145684027601 0 0 0
2632 1 4.1851161658465825 4.261165364392998 12.367891083194865 0 0 0
1986 1 7.308789575334512 4.355937412059663 9.32394812718389 0 0 0
2635 1 8.537006121949094 2.9011347849567124 10.941121065032034 0 0 0
2671 1 8.422583723284413 5.876158149464058 10.93928961119396 0 0 0
2634 1 6.999640104476293 4.457505345614144 12.421447759762705 0 0 0
2673 1 11.518713631752737 5.811544729484475 10.81271284505847 0 0 0
2636 1 9.901009874330244 4.591830955569811 12.435739552342943 0 0 0
2638 1 12.993867129725759 4.404263113905541 12.371456411282251 0 0 0
2675 1 14.344729480355365 5.901659868365978 10.899560028632749 0 0 0
2640 1 15.822827078620563 4.3258999546269505 12.465447527791449 0 0 0
1994 1 18.69155563884577 4.325624721572368 9.259011922598186 0 0 0
2677 1 17.162372885147967 5.70700371634591 11.027113032543715 0 0 0
2642 1 18.69143771248407 4.349500584077315 12.546278979394824 0 0 0
2679 1 20.010111131656835 5.954505804579247 10.826548031568272 0 0 0
2644 1 21.538225575882127 4.244786016330715 12.207265313277587 0 0 0
2645 1 23.02693026194047 2.8601072890685963 10.678570144557503 0 0 0
2681 1 23.110473301277743 5.855045595927062 10.718100642779211 0 0 0
2646 1 24.40871628636421 4.353002663449448 12.2195441111733 0 0 0
2683 1 25.942377837951955 5.791808650414494 10.682497790941936 0 0 0
2703 1 2.6506030881423976 8.764652107444244 10.812888376643532 0 0 0
2666 1 1.2050308135473262 7.304276473144514 12.370071059363536 0 0 0
2020 1 4.108707000889174 7.161894826485474 9.396887336505287 0 0 0
2705 1 5.533252974466943 8.677306754681942 10.835308592840935 0 0 0
2668 1 4.120306036315687 7.127663546733573 12.303521411479087 0 0 0
2022 1 7.025127166811273 7.4114718401989155 9.41943341154408 0 0 0
2707 1 8.42052468252917 8.681345597452381 10.984342796551442 0 0 0
2670 1 6.980604360727987 7.230794989933159 12.319991408251404 0 0 0
2709 1 11.466638097216808 8.909441875484218 10.764989951709977 0 0 0
2672 1 10.045178799908843 7.286638498156129 12.255719580849721 0 0 0
2674 1 12.858565429230266 7.484950039776217 12.267876668690699 0 0 0
2711 1 14.535086930423027 8.678979856292273 10.806412377629483 0 0 0
2676 1 15.764234419302369 7.253769236728308 12.499685118386747 0 0 0
2713 1 17.27634068805071 8.72674190813906 10.87836403541273 0 0 0
2678 1 18.512329915036123 7.282695256507319 12.413650337600581 0 0 0
2715 1 19.974957398518026 8.839931593345574 10.8570530453754 0 0 0
2680 1 21.497096499844442 7.288694343488868 12.252494283827604 0 0 0
2717 1 23.05388366128002 8.651613316496316 10.85000430880766 0 0 0
2682 1 24.422120902556816 7.311178074834665 12.399425414733946 0 0 0
2054 1 1.2780469302689295 10.396160356109636 9.580003006504189 0 0 0
2739 1 2.6717981921425564 11.693639413373756 11.01765942047669 0 0 0
2702 1 1.283995406495384 10.298588965818585 12.417803592694076 0 0 0
2741 1 5.6130744945226505 11.58947528023353 10.77496679255317 0 0 0
2704 1 4.179675169580416 10.333317677555508 12.32569193965167 0 0 0
2058 1 7.15898409586606 10.118709139229722 9.412406967202497 0 0 0
2706 1 7.036887544276003 10.171217846003987 12.483071714271134 0 0 0
2743 1 8.317467652903465 11.81700085776785 10.95517814227549 0 0 0
2708 1 9.999502540896112 10.510592273738434 12.284504255315763 0 0 0
2745 1 11.496855672714526 11.68628687354984 10.817945093465813 0 0 0
2710 1 12.983675348519197 10.103481572875404 12.189782130582516 0 0 0
2712 1 15.808415442393066 10.317056082716546 12.257092060870194 0 0 0
2747 1 14.306723357540104 11.710366987432518 10.77785020286265 0 0 0
2714 1 18.54706012411193 10.289898975683869 12.288479267787443 0 0 0
2749 1 17.10268388676508 11.832467448367499 10.771721617588156 0 0 0
2716 1 21.74796961631188 10.217517585925764 12.323091342960852 0 0 0
2751 1 20.198821441464833 11.65242277555615 10.817704989358386 0 0 0
2070 1 24.512939902952994 10.270322810174385 9.453008127058702 0 0 0
649 1 -0.33323031556227534 0.1838259241647875 1.9908660535246732 0 0 0
703 1 25.81140281444381 2.9759297341014164 2.234123675311653 0 0 0
793 1 -0.2634341507618956 11.804933093558247 2.2013208698903743 0 0 0
1315 1 25.943130078947338 -0.04577021415203614 5.085935509945677 0 0 0
1297 1 -0.23510123863970023 0.09590047282425529 5.0317202374578125 0 0 0
1369 1 -0.31641473203228543 5.933962618327082 5.133977102233041 0 0 0
1423 1 25.790986351239802 8.73398760377722 4.833506155697954 0 0 0
1459 1 25.940230646334612 11.618166332618886 5.02961508123802 0 0 0
1963 1 25.881631879342667 -0.033275184395933244 7.770935006188319 0 0 0
2071 1 25.925465145219572 8.91416173742225 7.938984236077252 0 0 0
2053 1 -0.33954861299699957 8.832296320739928 8.16394291193939 0 0 0
2629 1 -0.3471513414873755 3.1591221913790224 11.148169218718916 0 0 0
2665 1 -0.31359126878719223 5.890602937212567 11.012632115258235 0 0 0
2719 1 25.84030597254394 8.625905044505782 10.850787512896277 0 0 0
2701 1 -0.23866576302206965 8.978175637005556 11.136064896431568 0 0 0
3242 1 1.0193217082528692 1.2727223571405775 15.294776047586547 0 0 0
3243 1 2.5826942805423156 -0.06493072695069763 13.896142213984358 0 0 0
3279 1 2.686206102420377 2.891049769556099 13.897202740275707 0 0 0
3244 1 4.156036774528487 1.3442960623655518 15.452529874887118 0 0 0
3245 1 5.642318743687821 0.05024575956603217 13.68159934964649 0 0 0
3281 1 5.615634409973121 2.915248222641821 13.746832663552405 0 0 0
3246 1 7.002434563299766 1.3001190110257534 15.19838654975767 0 0 0
3247 1 8.643116973659716 -0.1332998897220302 13.912445270288043 0 0 0
3248 1 9.838543904943586 1.3637995164335337 15.404423948686151 0 0 0
3249 1 11.240252564908563 -0.07786758631139423 13.960688129968025 0 0 0
3250 1 12.721747033703107 1.5590380438583977 15.312356056380303 0 0 0
3251 1 14.078633468260549 -0.052544100036014896 13.783939216317476 0 0 0
3252 1 15.629480841626542 1.223403714061128 15.209316594538473 0 0 0
3253 1 17.374735947756967 -0.3545420472432197 14.018939525263972 0 0 0
3254 1 18.701508094315816 1.2983797417165281 15.251099763137539 0 0 0
3289 1 17.33545722522878 2.8039183669950054 13.942165254316972 0 0 0
3256 1 21.591446632226024 1.5743289122745943 15.206436047302288 0 0 0
3291 1 20.175662954991385 2.777220730575812 13.661811598836943 0 0 0
3255 1 20.13414008147606 -0.19005419042544738 13.967171316873314 0 0 0
3257 1 23.082486445049707 -0.06004007770760328 13.808391415726984 0 0 0
3258 1 24.492213662379314 1.3542306830745476 15.219917971475736 0 0 0
5993 1 23.079647326848473 11.671074268914202 25.35227322918908 0 0 0
3278 1 1.1906793420953887 4.384296731068338 15.147329509096002 0 0 0
3315 1 2.6754407018263446 5.913580398004548 13.93383965214927 0 0 0
3280 1 4.062781594826469 4.358037484335884 15.179243055082072 0 0 0
3317 1 5.650721580516659 5.816237926594227 13.913483284308262 0 0 0
3283 1 8.493918241618424 2.7904358414670125 13.934881322202374 0 0 0
3282 1 7.182546599868666 4.33794848277092 15.26516982331233 0 0 0
3319 1 8.401340417349171 5.935602550016361 13.761759943995356 0 0 0
3285 1 11.191126091052494 3.0910834480997114 13.832136564749655 0 0 0
3284 1 9.682086564740246 4.494246350171953 15.230245367826445 0 0 0
3321 1 11.424883065925327 5.96032635464864 13.71960332053767 0 0 0
3287 1 14.375166794562 2.7721796788606228 13.851007049182614 0 0 0
3286 1 12.962360619650864 4.22766517069591 15.248954005065585 0 0 0
3288 1 15.747307208387728 4.20903505825689 15.204104945203268 0 0 0
3323 1 14.165520900554782 5.853700278901086 13.87584566486572 0 0 0
3290 1 18.70695447329513 4.126509210203942 15.329415280077827 0 0 0
3325 1 17.292354460950627 5.776383506167668 13.834331256784695 0 0 0
3292 1 21.535509496170583 4.210450019459544 15.034352133028445 0 0 0
3327 1 20.126068413730312 5.926859519606435 13.734537995107075 0 0 0
3293 1 23.068659894317005 2.8704030129697746 13.611861605854203 0 0 0
3294 1 24.555872646893437 4.529360042448129 15.288639645672482 0 0 0
3329 1 22.97535944836469 5.744861833789198 13.671993427715373 0 0 0
3331 1 25.819616164142314 5.864635648467037 13.65082823935068 0 0 0
3314 1 1.3767337042199406 7.465948704836057 15.26442585137986 0 0 0
3351 1 2.7333155188185905 8.715700735607003 13.766093031831728 0 0 0
3349 1 -0.08892808725366208 8.978512345003761 13.867386887580535 0 0 0
3316 1 4.122934880452337 7.315693119884119 15.358070410836858 0 0 0
3353 1 5.399228708961868 8.748327396487198 13.63374944439761 0 0 0
3318 1 7.050033506965108 7.607074157313443 15.106968589239399 0 0 0
3355 1 8.661765707845419 8.758494668670712 13.706160966749243 0 0 0
3320 1 10.01581676115174 7.365352175000112 15.21202133967604 0 0 0
3357 1 11.294964018090925 8.863898887242811 13.703405430991948 0 0 0
3322 1 12.790229889967359 7.221890312195019 15.348620437549519 0 0 0
3324 1 15.809765957478625 7.243300790107147 15.46782705638651 0 0 0
3359 1 14.34732157402936 8.852040107173726 13.848655600227906 0 0 0
3326 1 18.685158162409515 7.303048037920137 15.22693391786387 0 0 0
3361 1 17.086910476934484 8.687166646780073 13.92090609959444 0 0 0
3328 1 21.54949234999382 7.3752542306672 15.120348398901791 0 0 0
3363 1 19.965672543663263 8.802750553441777 13.692437077616255 0 0 0
3330 1 24.369110306648743 7.452389538793029 15.255468941914065 0 0 0
3365 1 23.080843328957325 8.92840065515276 13.81343076405704 0 0 0