LAMMPS data file via write_data, version 2 Aug 2023, timestep = 1300000, units = metal

11664 atoms
1 atom types

-0.43169309483308993 52.3448818913164 xlo xhi
-0.4316007103116313 52.34497427583796 ylo yhi
-0.4318021001194694 52.344772886028544 zlo zhi

Masses

1 55.847

Atoms # atomic

2 1 1.1870948614783696 1.5405006713389513 0.6187392505741671 0 0 0
651 1 2.604232251148709 -0.21062018036698407 2.082993524647859 0 0 0
649 1 -0.3503622165922147 0.12845568158423248 1.9800038704132024 0 0 0
4 1 3.979660301299468 1.4152440300161715 0.3680427183302233 0 0 0
653 1 5.273622883724772 0.02773737826814654 1.9044659232274386 0 0 0
6 1 6.8526417064179075 1.35671444616918 0.4777067179302934 0 0 0
655 1 8.327157353533988 -0.0912585458349835 1.899781103393619 0 0 0
8 1 9.789548663785519 1.315687955971731 0.3802142519872609 0 0 0
657 1 11.221834494566801 -0.03883886062029701 1.8813702856458598 0 0 0
10 1 12.664132507639783 1.6205760542633691 0.39916866204772916 0 0 0
12 1 15.672323911654779 1.3707126347718066 0.5684435905006591 0 0 0
659 1 14.00893337834969 0.0369263969432409 2.011234714956002 0 0 0
14 1 18.476913579248137 1.49812425658529 0.2910453997828417 0 0 0
661 1 17.362014021333334 -0.0768158657502202 1.8270864338282862 0 0 0
16 1 21.523155343080138 1.5210584021443931 0.5699684520498409 0 0 0
663 1 20.039487147008796 0.07365604657617941 1.8297812322629934 0 0 0
18 1 24.617844958450032 1.4723596903997287 0.5594031293562209 0 0 0
665 1 23.19045204617798 0.03681542796201548 1.9837140427553592 0 0 0
687 1 2.504175876622337 3.1307212267116333 1.932218992349219 0 0 0
38 1 1.1169483617915896 4.531697068676493 0.4238403864594017 0 0 0
723 1 2.4846082052070892 5.945344827878401 1.9478066917969072 0 0 0
721 1 -0.20581855241711447 5.890083501752766 2.0155172193935904 0 0 0
689 1 5.406367231766385 2.9890994597650606 1.864875737170078 0 0 0
40 1 3.7978009396325643 4.533849186430533 0.3360210520454199 0 0 0
725 1 5.529165947315465 5.934898899676518 1.9764242564156689 0 0 0
691 1 8.136834347054224 3.026213802996785 1.7458235187713997 0 0 0
42 1 6.749570484711029 4.539872991375215 0.4645737554608226 0 0 0
727 1 8.196682195048096 5.887638600423629 1.8360531537017915 0 0 0
693 1 11.206476413163962 2.835656161961099 1.947020724968748 0 0 0
44 1 9.804218950765602 4.555916011075343 0.5698820056270153 0 0 0
729 1 11.243058591659716 5.681628159001318 2.0720286946656605 0 0 0
695 1 14.301698056561795 2.752464829558728 1.991460591681331 0 0 0
46 1 12.589025767595443 4.258710704057746 0.34379679420314857 0 0 0
48 1 15.587900356123136 4.39876658084989 0.5418069400776746 0 0 0
731 1 14.141998306885492 5.944180797848193 1.9094338150995283 0 0 0
697 1 17.03823750968365 2.7621461441357793 1.977915332898792 0 0 0
50 1 18.430199010095734 4.433294618534843 0.6099034522859554 0 0 0
733 1 17.002041772972827 5.789378196811662 2.0801311233058954 0 0 0
699 1 19.868131517785425 2.9463363760159895 1.902046582884489 0 0 0
52 1 21.511252474152545 4.221080100399138 0.5605673012987199 0 0 0
735 1 19.928947874156332 5.852736518571029 1.9391418999661445 0 0 0
701 1 23.00089118162217 2.9291882606990844 1.9406553806600257 0 0 0
2718 1 24.47317135461165 10.240769846763632 12.15712775311477 0 0 0
54 1 24.5897297037108 4.297331923933157 0.4795230990274506 0 0 0
737 1 22.982948561550455 5.7364786022479874 1.942936306371374 0 0 0
2753 1 23.059808611742163 11.641202074434121 10.751866492393356 0 0 0
74 1 1.0801168115814597 7.387381726569616 0.6586405938593214 0 0 0
759 1 2.4393722790219647 9.079638180626016 1.9943120769048588 0 0 0
757 1 -0.2976191615322653 8.911849703258907 2.1294891773631255 0 0 0
76 1 4.099106613428413 7.5355902709028175 0.5785204411902816 0 0 0
761 1 5.474914998598399 9.025023778229436 1.980972201300002 0 0 0
78 1 6.791432819813952 7.380198693199822 0.49368162242415903 0 0 0
763 1 8.301900525160299 8.774087219694072 1.9894667008428355 0 0 0
80 1 9.829434941083816 7.45574298837987 0.2887956842113417 0 0 0
765 1 11.147548799706637 8.65380899489676 1.9542840766278746 0 0 0
82 1 12.60501711526581 7.414613237256521 0.4749770485431558 0 0 0
84 1 15.58982847102168 7.415382773653256 0.5231131913180513 0 0 0
767 1 14.057135211418569 8.660047993997273 1.9633642414201056 0 0 0
86 1 18.40033004692396 7.252704946089319 0.52260344342507 0 0 0
769 1 17.079041965835412 8.794427900940278 1.9578133800084605 0 0 0
88 1 21.668272276231562 7.14471740034057 0.48910614406523467 0 0 0
771 1 20.007907180647678 8.525613331058453 1.9250797091119827 0 0 0
90 1 24.49411397161949 7.414963407071584 0.44142596354356745 0 0 0
773 1 22.957640262070438 8.637885910590382 1.9478641710005067 0 0 0
2751 1 20.02801342027249 11.766923952920129 10.490219685062133 0 0 0
110 1 1.2061328270845266 10.324316624837916 0.385640908723344 0 0 0
795 1 2.7960225659107847 11.88591497818784 1.9445083504371174 0 0 0
112 1 4.040193443839407 10.408691796055784 0.294801947444162 0 0 0
797 1 5.53720641407971 11.609734633475785 1.8817584459997456 0 0 0
114 1 7.127538863635067 10.320572491419817 0.31481031974013285 0 0 0
799 1 8.351608273405645 11.879474610097695 1.6784547187996117 0 0 0
116 1 9.681966985363923 10.262687292151169 0.3304520402862524 0 0 0
801 1 11.203703706707397 11.72613634371874 1.845959540308323 0 0 0
118 1 12.513018654001517 10.021564832820339 0.5081394699907176 0 0 0
120 1 15.538422342734126 10.18656989506531 0.40671599419692583 0 0 0
803 1 14.084614702542318 11.553915347883137 1.9969730004153243 0 0 0
122 1 18.58517266465871 10.34277105722539 0.46666705478219983 0 0 0
805 1 17.06820582706975 11.762374675889872 1.9447701687799612 0 0 0
124 1 21.550313143864027 10.184113114012089 0.5890355749271177 0 0 0
807 1 20.110960193674913 11.500365828839954 1.9921657624293352 0 0 0
126 1 24.309558568913396 10.138769115756093 0.4643198895508496 0 0 0
809 1 22.99639006745905 11.91105168266887 2.0066492641844804 0 0 0
1299 1 2.5609313522975845 0.09411915223175082 4.933645523080808 0 0 0
650 1 1.1073591271874936 1.4655704989940557 3.4619617965665697 0 0 0
1297 1 -0.34917364284575403 0.14652771590766356 5.06021904321053 0 0 0
652 1 3.989941664592541 1.5245385555323565 3.3449502121868644 0 0 0
1301 1 5.281875614783177 0.18229291638711043 4.852315360065323 0 0 0
1303 1 8.325444773473013 0.04104197973960838 4.78790775289538 0 0 0
654 1 6.804876133677979 1.422852670215276 3.3505910477563323 0 0 0
1302 1 6.87181977374639 1.3888425871063113 6.441126040491492 0 0 0
656 1 9.679040033219723 1.6026520002258224 3.3735734706800375 0 0 0
1305 1 11.057333841164056 -0.03480174958267468 4.780890004199104 0 0 0
658 1 12.645461763340835 1.4432763711602543 3.488593790543493 0 0 0
660 1 15.821334704807182 1.2363384667383703 3.401347406164757 0 0 0
1307 1 14.204422257209876 -0.06146284975291305 4.900507777892911 0 0 0
662 1 18.746292332822993 1.3984078556150972 3.56155278661529 0 0 0
1309 1 17.338247578761816 -0.12899330452697494 4.727389145135581 0 0 0
1311 1 20.14457243310056 -0.08903973198486348 4.971006312683308 0 0 0
664 1 21.299096439379408 1.477487400175508 3.5349112975320818 0 0 0
1312 1 21.614642728100215 1.4030288288462953 6.144730302286228 0 0 0
1313 1 23.093588669143198 0.1512928638963399 4.728775844042736 0 0 0
666 1 24.552147632532794 1.5380879356074126 3.3795396750638043 0 0 0
1315 1 25.91350637124439 0.08867219526251358 4.94278658389744 0 0 0
1314 1 24.532731462156065 1.526031085699142 6.329902338577046 0 0 0
1335 1 2.597629560347723 3.083610007715609 4.937030412760699 0 0 0
686 1 1.1530725752639737 4.402026542374433 3.4911668692218965 0 0 0
1371 1 2.6717382183932847 5.996365896434789 4.774960505600798 0 0 0
1333 1 -0.42346037257337454 3.134663296437025 5.066343781377125 0 0 0
2716 1 21.427243362211218 10.388889360664063 12.069993908594036 0 0 0
1337 1 5.469709334919289 2.990737640472614 5.05613989954665 0 0 0
688 1 4.00181565351301 4.343008520860018 3.4380907668899785 0 0 0
1373 1 5.333169875324789 5.941227040383476 5.038511344593735 0 0 0
1339 1 8.314695576662315 2.919721849096229 5.148004712050367 0 0 0
690 1 6.940843603216711 4.357840694544227 3.475535456319538 0 0 0
1375 1 8.315827102786686 5.8377656568577905 5.063306732025962 0 0 0
1341 1 11.310480065847413 2.938275280507674 4.873472419006783 0 0 0
692 1 9.63491907554976 4.427852297624789 3.384885093441139 0 0 0
1377 1 11.29330420839094 5.807124398549581 4.870196458035614 0 0 0
694 1 12.69159487246186 4.178679791388882 3.3183762071774954 0 0 0
1343 1 14.337873408458108 2.8700037773357687 4.851678995604874 0 0 0
696 1 15.54204060822381 4.281767071258884 3.331430307281351 0 0 0
1379 1 14.248789504503627 5.78317910912673 4.84554562427596 0 0 0
1345 1 17.1552977714724 2.897479283556752 4.748843362641588 0 0 0
698 1 18.679367833290488 4.3897742255325225 3.546209748740887 0 0 0
1381 1 16.904643925295606 5.659223260193006 4.871258157599929 0 0 0
1347 1 20.122662909187696 2.9975307935402484 4.969591402519303 0 0 0
700 1 21.472954765144948 4.260105517659687 3.3758713273943246 0 0 0
1383 1 20.227832721411136 5.894260017520099 4.8353970698087 0 0 0
1349 1 23.0293085690031 2.9565406313964835 4.609955687493974 0 0 0
702 1 24.53221468297978 4.563859605944962 3.3036840646648846 0 0 0
1385 1 23.200755622679786 5.829318787277908 4.829209459714539 0 0 0
1351 1 25.814811352464012 3.0382499563034986 4.830436074918056 0 0 0
1387 1 25.92774579146284 5.95492296220898 4.939289695412905 0 0 0
722 1 1.1286237085156168 7.285728961775142 3.545272319557575 0 0 0
1407 1 2.5772556909699302 8.851438987533804 4.935058979756498 0 0 0
1405 1 -0.29848537480043347 9.106280772502041 5.067611620178404 0 0 0
724 1 4.0402268396358085 7.378128716646997 3.27566627011574 0 0 0
1409 1 5.470876465996941 9.068374373177354 5.106544852821675 0 0 0
726 1 6.807481245743402 7.313643063582924 3.5262373290160816 0 0 0
1411 1 8.122524509331623 8.823549493669201 5.085441358570151 0 0 0
728 1 9.543555570298407 7.164775080355012 3.5586491601814787 0 0 0
1413 1 11.18271266118212 8.889943241646218 4.796763356347177 0 0 0
730 1 12.702090617757392 7.378042357830894 3.5772525604170484 0 0 0
1415 1 14.272011553872343 8.901384421726652 4.759842106071604 0 0 0
732 1 15.646119500532194 7.3926744161328335 3.396620035265447 0 0 0
734 1 18.56812124014801 7.218440686850173 3.6542242129364864 0 0 0
1417 1 17.212905714419946 8.954049396044429 4.830762913943809 0 0 0
736 1 21.643337454940106 7.191462753034115 3.382155067930881 0 0 0
1419 1 20.024539851292175 8.74204357852882 4.901984611018165 0 0 0
738 1 24.678913854851523 7.446802969843735 3.3738879425181296 0 0 0
1421 1 23.08975982355934 8.738723125499035 4.722229603985595 0 0 0
2714 1 18.5264217184675 10.207704897488446 12.021564335147957 0 0 0
758 1 1.2506109007421444 10.470317779440569 3.725034309208321 0 0 0
1443 1 2.6324755992617037 12.007592975114349 5.0557211604737935 0 0 0
1441 1 -0.40675980757702296 11.959214326595411 4.908987954563087 0 0 0
760 1 4.176361029685067 10.310327013203027 3.558065872972294 0 0 0
1445 1 5.549464186852476 11.827750309777462 4.9065465491827 0 0 0
762 1 7.0280500933370895 10.38228466786737 3.2609835009246084 0 0 0
1447 1 8.399921346422508 11.755610042664525 5.011405562053706 0 0 0
764 1 9.674252465214801 10.517860981337178 3.17992465582534 0 0 0
1449 1 11.272130436405845 11.67126134028245 4.93791668766071 0 0 0
766 1 12.548489191447427 10.118738704715742 3.257606377707443 0 0 0
768 1 15.715828927577896 10.210564365020737 3.3518381533559114 0 0 0
1451 1 14.060863753606949 11.693243285111876 4.81523559942631 0 0 0
770 1 18.615685640774498 10.322920386670061 3.4445039061576423 0 0 0
1453 1 17.343017630223347 11.663576764653826 5.0037221151430025 0 0 0
772 1 21.538745085361157 10.039511458025467 3.23804802993165 0 0 0
1455 1 19.969081092932647 11.714028429067989 4.840965503002089 0 0 0
774 1 24.469831993067842 10.269818720829784 3.3503823081821724 0 0 0
1457 1 22.734596364587897 11.737376364128865 4.761355224279309 0 0 0
1298 1 1.0749712431420937 1.6589632871796245 6.414979376452087 0 0 0
1947 1 2.449183802491806 0.04851611135346662 7.857649410320111 0 0 0
1946 1 0.9903352604674176 1.6058241515328402 9.182201561372866 0 0 0
1949 1 5.391034613610096 0.09986423848848491 7.978148600853146 0 0 0
1300 1 3.9088351868589424 1.556724996044156 6.390686535702708 0 0 0
1948 1 3.890006411822653 1.602429143782278 9.263227266459014 0 0 0
1951 1 8.412290542003808 0.18899706674734862 7.902010916923748 0 0 0
1987 1 8.135190917367291 3.0150798729821937 7.695493930085439 0 0 0
1950 1 6.79517892588968 1.5758071035078483 9.430969711935033 0 0 0
1304 1 9.83440331327222 1.4209654071839495 6.205609051134999 0 0 0
1953 1 11.257295652097278 0.08810780394130768 7.778151751030197 0 0 0
1952 1 9.805864008312506 1.5904638000892035 9.198361967289143 0 0 0
1954 1 12.643777842708632 1.5186320127939155 9.200474711496938 0 0 0
1306 1 12.704692448753754 1.3594967766414452 6.415564709624079 0 0 0
1308 1 15.896843374395853 1.2990328758491276 6.192795950885262 0 0 0
1955 1 14.290002048152077 0.03733566212547934 7.764973563874458 0 0 0
1956 1 15.703087654746778 1.5013799907034826 9.361504207842525 0 0 0
1310 1 18.581524633843905 1.3927727700515116 6.487922487110083 0 0 0
1957 1 17.000495340359702 -0.0912399956262025 8.039944051778575 0 0 0
1958 1 18.6331805380497 1.4370905191839702 9.025184034177554 0 0 0
1959 1 20.149004485151618 -0.06822286914684322 7.683391487663144 0 0 0
1995 1 20.142809157702622 2.9943691133012273 7.7418929326768495 0 0 0
1960 1 21.564289745409038 1.5235128056474347 9.130805692349115 0 0 0
1961 1 23.036236439036372 0.07920910256480362 7.826958090479337 0 0 0
1962 1 24.55752534835597 1.6117245795714559 9.340945398565172 0 0 0
2749 1 17.085409635226274 11.66327600851723 10.786677474868917 0 0 0
1997 1 23.032499033641706 2.892526012908386 7.880959641759251 0 0 0
1999 1 25.931227656147545 2.9770748557813693 7.816964907657587 0 0 0
1983 1 2.479312265642612 3.2310716757671565 7.806384605089711 0 0 0
1334 1 1.113867780841271 4.56191017043165 6.372654390590398 0 0 0
2019 1 2.5066435597363563 5.989660971376085 8.075812552390785 0 0 0
2017 1 -0.34311941377891697 5.8058455475395725 8.150734618326323 0 0 0
1982 1 0.9252820187258841 4.357059157347266 9.557930458389857 0 0 0
1985 1 5.448790277465695 2.9653836479657203 7.811072130183861 0 0 0
1336 1 3.9407493100875994 4.476889786949557 6.343663417446633 0 0 0
2021 1 5.330907654195912 5.9758934040083345 7.874452285358936 0 0 0
1984 1 3.8766776197878308 4.358180109160227 9.492051928143631 0 0 0
1338 1 6.678283902692845 4.598642040965195 6.455384345497602 0 0 0
2023 1 8.257217806579815 5.806238575930345 7.963657791642593 0 0 0
1986 1 6.769658684869458 4.344558466101376 9.4140672305123 0 0 0
1989 1 11.390232171651924 3.0545779315165427 7.773344138048804 0 0 0
1340 1 9.89981707207018 4.309472784940238 6.273397320595282 0 0 0
2025 1 11.448363905039344 5.983516840012919 7.712609421487192 0 0 0
1988 1 9.744349281811786 4.381149746264047 9.285600836591092 0 0 0
1342 1 12.768136875685197 4.41490952489383 6.161261995614886 0 0 0
1990 1 12.785147001088758 4.381190451703916 9.27103476839026 0 0 0
1991 1 14.064455816392943 2.887737706045337 7.755663144686716 0 0 0
1344 1 15.642012536025515 4.263398993440347 6.351354028466743 0 0 0
2027 1 14.228147562994009 5.727326852462983 7.7860272589143715 0 0 0
1993 1 17.152527580166403 2.8542418167180785 7.6630161179363725 0 0 0
1346 1 18.63250109039172 4.419448145845163 6.283182921936379 0 0 0
2029 1 17.001447493704497 5.857839770760729 7.783994157525569 0 0 0
1994 1 18.675410280284797 4.4544529118338705 9.195225647065364 0 0 0
1348 1 21.69175088199786 4.320332494129772 6.248120438952554 0 0 0
2031 1 20.188155048758578 5.788829917370695 7.583731700180374 0 0 0
1996 1 21.649452750624075 4.592962757694394 9.281932204841063 0 0 0
1350 1 24.573671278938555 4.3914368768506495 6.4028567305131014 0 0 0
2033 1 23.10389688443099 5.88355410648127 7.7519420711826985 0 0 0
1998 1 24.453729835373295 4.379447527065396 9.210144261471797 0 0 0
2035 1 25.95598496197136 5.703989414416668 7.83384890945363 0 0 0
1370 1 1.072190927590529 7.25387426586454 6.4017088275658045 0 0 0
2055 1 2.5336652306246705 8.809716177486578 7.81644142624039 0 0 0
2018 1 1.0334994274553158 7.709832637661151 9.279864361835173 0 0 0
1372 1 3.9266065608686667 7.4573606999363715 6.340179859933042 0 0 0
2057 1 5.328048192688907 8.9164376950419 7.802038499821885 0 0 0
2020 1 4.057588933237296 7.3893522822531805 9.344322054820257 0 0 0
1374 1 6.861331058551614 7.294062822158305 6.45271544428595 0 0 0
2059 1 8.436766913285682 8.559418392183153 7.849469782878362 0 0 0
2022 1 6.689005944916306 7.309393982159003 9.372046478604071 0 0 0
1376 1 9.823991448686357 7.221917092306998 6.325005412347879 0 0 0
2061 1 11.150246829117211 8.632532693200327 7.801540766696519 0 0 0
2024 1 9.89508862592813 7.095024780855732 9.466324060616126 0 0 0
2026 1 12.735594730718013 7.209160090289228 9.449538532202896 0 0 0
1378 1 12.7975167152802 7.222724213296986 6.215602591364511 0 0 0
1380 1 15.71009745406106 7.4566458958917 6.140674340501067 0 0 0
2063 1 14.280614136539105 8.72510361181066 7.684550166490489 0 0 0
1382 1 18.42683298007927 7.10804476157648 6.297815340681492 0 0 0
2065 1 17.14158461967489 8.657532082289297 8.021105851654704 0 0 0
2030 1 18.585089941281062 7.203042460412687 9.278154568132038 0 0 0
1384 1 21.727545373552665 7.41586054225143 6.2009624240618635 0 0 0
2067 1 20.008525382054216 8.814834873485333 7.819052630948569 0 0 0
2032 1 21.877744356470398 7.360616702334796 9.12838310919134 0 0 0
1386 1 24.484095941761325 7.451463065496656 6.361965073714479 0 0 0
2069 1 23.185877427523163 8.83017226033643 7.923042423580483 0 0 0
2034 1 24.677137028965717 7.34032684625132 9.347440449683507 0 0 0
1406 1 1.2380189757262345 10.334900051010377 6.409619712628997 0 0 0
2091 1 2.564876618967691 11.860502040632161 7.873997712362467 0 0 0
2054 1 1.2027167886988857 10.391240665125677 9.297050847290649 0 0 0
2089 1 -0.15307128653499075 11.786743484047651 7.6216011197301015 0 0 0
1408 1 3.856557882841603 10.310420077753356 6.42714579225096 0 0 0
2093 1 5.380799934774478 11.814619451754341 7.936362567415108 0 0 0
2056 1 3.972256298533673 10.505336745875333 9.468760749203494 0 0 0
1410 1 7.054645956781697 10.458537085445435 6.537834607099464 0 0 0
2095 1 8.430322489595763 11.914047166409803 7.852023946497704 0 0 0
2058 1 7.029328109738553 10.262957925997101 9.23628988558701 0 0 0
1412 1 9.7728297076693 10.343242964106734 6.56148932987662 0 0 0
2097 1 11.26584857503015 11.744812762322674 7.901662087563983 0 0 0
2062 1 12.784170866030959 10.154051987565262 9.300623825727131 0 0 0
1414 1 12.759267508341264 10.084268825985557 6.299964057305948 0 0 0
1416 1 15.95913797517721 10.290775606269293 6.343788789741424 0 0 0
2099 1 13.992329392352556 11.74363470372161 7.755945527058232 0 0 0
2064 1 15.57307615371759 10.256480165622108 9.292554009864196 0 0 0
2066 1 18.695014982562896 10.162263125951064 9.396187657243438 0 0 0
1418 1 18.66807678008171 10.25100898059004 6.391293773759837 0 0 0
2101 1 17.33333049204874 11.635172220841387 7.945712741591624 0 0 0
2068 1 21.729773586372147 10.18503207362063 9.319048280224704 0 0 0
1420 1 21.504737510507702 10.109680326998602 6.3133588415408095 0 0 0
2103 1 20.180631632739942 11.672508085462042 7.742926908448217 0 0 0
2070 1 24.68823703617985 10.23060903648879 9.249295479955268 0 0 0
1422 1 24.60748265854767 10.342532286842939 6.146084545171862 0 0 0
2105 1 23.170574688311007 11.727060290811922 7.823702480074699 0 0 0
2595 1 2.4118267499837462 0.10899938251695718 10.57127215312718 0 0 0
2594 1 1.0710462876839786 1.488308306001988 12.205871303126822 0 0 0
2593 1 -0.3587929931300887 -0.06712274283009995 10.896547911022642 0 0 0
2597 1 5.372193105412537 0.10587447487234025 10.727667793143487 0 0 0
2596 1 3.877479844120278 1.2616498802039882 12.28745633453734 0 0 0
2599 1 8.552403731282478 0.04546247437750023 10.796020087761102 0 0 0
2598 1 6.945468207957028 1.5242003710829106 12.375490557004698 0 0 0
2635 1 8.410592286573669 2.8342017299713795 10.946519091633535 0 0 0
2601 1 11.323673070676096 0.09898190378122251 10.82221574429811 0 0 0
2600 1 9.883816430645927 1.473163091008624 12.292799261961504 0 0 0
2602 1 12.689851724524349 1.4538754154562634 12.298699076131 0 0 0
2603 1 14.174493751922284 0.03814367613756542 10.752504305101096 0 0 0
2604 1 15.750887092749476 1.4551229419174068 12.15377268235085 0 0 0
2639 1 14.157522361396662 3.000441858160647 10.824342282366008 0 0 0
2605 1 17.187114449129762 0.08345456678774621 10.706206884203981 0 0 0
2606 1 18.715331649787018 1.5365063016455862 12.139220344668663 0 0 0
2607 1 20.064819167345817 0.10500941246141049 10.762625299001012 0 0 0
2608 1 21.597880176262404 1.5740607128817516 12.165859968197603 0 0 0
2609 1 23.036601193486007 0.0321774041189507 10.699339167156575 0 0 0
2610 1 24.48650390100963 1.6653650820389125 12.351177510162698 0 0 0
2631 1 2.468747633449181 3.0622141759983754 11.005420528774845 0 0 0
2667 1 2.27248869934685 6.059283964924656 10.577958490555611 0 0 0
2630 1 1.0082640728787202 4.7326104736433905 12.27592793235616 0 0 0
2710 1 12.816970958166747 10.198913559807686 12.030276812857291 0 0 0
2633 1 5.253093400337139 3.035523426836177 10.760878257725416 0 0 0
2669 1 5.407785996660524 5.859994508780501 10.740409237006268 0 0 0
2632 1 3.9169411913451553 4.5401527882637644 12.339971601693 0 0 0
2634 1 6.794952161220991 4.362380879073696 12.288154592259728 0 0 0
2671 1 8.22686105894957 5.8254275389197305 10.798255150618823 0 0 0
2637 1 11.31687107566206 3.0770856886709823 10.788014850051828 0 0 0
2673 1 11.25944192223771 5.798949414128416 10.958926021149178 0 0 0
2636 1 9.774439231367424 4.379175570260349 12.187259206019712 0 0 0
1992 1 15.509121897667105 4.376098234375287 9.264327157919459 0 0 0
2638 1 12.85908367901992 4.548501204015842 12.352630482206639 0 0 0
2675 1 14.279112796130132 5.956179436362886 10.662171884739491 0 0 0
2640 1 15.675216689857645 4.256972330911784 12.292688499550502 0 0 0
2641 1 17.208110419805994 3.009202902755082 10.664283791045802 0 0 0
2677 1 17.211278400098625 5.771045625218466 10.69628743614134 0 0 0
2642 1 18.659386191366817 4.542559937969654 12.096107784766692 0 0 0
2643 1 20.165262715242136 3.118163837755273 10.863062247497757 0 0 0
2679 1 20.08720186002745 5.955240629180656 10.717765450799758 0 0 0
2644 1 21.600708396913348 4.5356625229513785 12.15905651595503 0 0 0
2645 1 23.087354807668312 2.9476223954394567 10.699260241135105 0 0 0
2681 1 23.188210152051695 6.013111593407501 10.743927306259028 0 0 0
2646 1 24.45019622422315 4.459835178393113 12.258635955621731 0 0 0
2647 1 25.833917761984765 2.9610769479834897 10.919740982131938 0 0 0
2712 1 15.399271375624977 10.294371687282359 12.136336786265616 0 0 0
2703 1 2.507096253457742 8.929511019326613 10.927281041811426 0 0 0
2666 1 1.0777603223908514 7.457894708842398 12.272273582818745 0 0 0
2705 1 5.543695973798739 8.897558165621861 10.880763635079164 0 0 0
2668 1 4.065759473484406 7.309723633034992 12.302111710413545 0 0 0
2707 1 8.3172354273462 8.588198111719258 10.829354458991471 0 0 0
2670 1 6.839771002447676 7.202166872978429 12.279153757071994 0 0 0
2709 1 11.3291818256757 8.675463572775358 10.762811784654499 0 0 0
2672 1 9.83320202107187 7.289822008871608 12.30797733325686 0 0 0
2028 1 15.775776638755215 7.199897053776744 9.351358395490227 0 0 0
2674 1 12.744717811843106 7.364551541845643 12.424590559655103 0 0 0
2711 1 14.175854181565661 8.720274709515246 10.671707027606569 0 0 0
2676 1 15.687835193740462 7.358811790732095 12.107685541816721 0 0 0
2713 1 17.07478868774235 8.820265743945047 10.599471200106992 0 0 0
2678 1 18.61327572428104 7.3890731800058305 12.070680418128765 0 0 0
2715 1 20.11787357694613 8.649518873593948 10.73238637611296 0 0 0
2680 1 21.837455650513554 7.372246275942177 12.33094451890699 0 0 0
2717 1 22.933468226706953 8.80847166163518 10.817378475966358 0 0 0
2682 1 24.424795492196115 7.48085776610421 12.282078864637517 0 0 0
2747 1 14.147695373209396 11.809414791876282 10.448439682836904 0 0 0
2739 1 2.478167507528736 11.789524444365833 10.846599980424855 0 0 0
2702 1 0.9783517619887676 10.382749983944617 12.335409513958824 0 0 0
2745 1 11.161104872754173 11.764390640844491 10.795313631794295 0 0 0
2741 1 5.829293758267095 11.723457179225587 10.968733354690668 0 0 0
2704 1 4.146232535157339 10.374955841249541 12.40567231548645 0 0 0
2706 1 7.166904052887471 10.152446980796087 12.32704336884962 0 0 0
2743 1 8.522243633217231 11.596848638535992 10.691754620500154 0 0 0
2060 1 9.791296988720225 10.083695010059651 9.18493326536847 0 0 0
2708 1 9.786110162535945 10.029473349890731 12.103896920214318 0 0 0
667 1 25.905489927230786 0.05577653387799547 2.0840828766622184 0 0 0
685 1 -0.3006688398235866 2.898165963110378 2.021966334932788 0 0 0
793 1 -0.1884264475881281 11.703453321900803 1.970014956427367 0 0 0
1945 1 -0.43147765179423914 -0.03170981488002034 7.827790374660394 0 0 0
2053 1 -0.36355712927452544 8.936411426168606 7.781750213038498 0 0 0
2611 1 25.75810407267502 -0.007195845614413721 11.080569800767506 0 0 0
2665 1 -0.3427379496008882 6.303030790068724 10.748947389644007 0 0 0
3242 1 0.8959376184426793 1.514093274582439 15.214088527670881 0 0 0
3243 1 2.5313604791553193 0.0706243492261408 14.002698022363953 0 0 0
3244 1 4.079056845745635 1.3788685126336118 15.335992792632545 0 0 0
3245 1 5.313088994171362 -0.0313066708867758 13.86432483053659 0 0 0
3281 1 5.132883809120791 2.7702153847719937 13.571377044749097 0 0 0
3246 1 6.875890639079607 1.5466968579987357 15.20205614467045 0 0 0
3247 1 8.436589893136972 0.09473844266892839 14.0128594481497 0 0 0
3248 1 10.004031647650503 1.5556491906599343 15.282087135745924 0 0 0
3249 1 11.136068625680661 -0.07910653004481571 13.924022659752366 0 0 0
3250 1 12.883281619351939 1.486684703648211 15.167476689689959 0 0 0
3251 1 14.27876988992742 -0.11701479012247967 13.835241882710653 0 0 0
3252 1 15.911623183757303 1.653566569155298 15.222537296354968 0 0 0
3253 1 17.272613397791186 0.0016216571652795109 13.679639270491089 0 0 0
3254 1 18.87607655515186 1.5657836198538053 15.099971108745242 0 0 0
3256 1 21.55965267557584 1.548793123158579 15.034955283005262 0 0 0
3255 1 20.237715793068155 0.15686237170496464 13.56054566398862 0 0 0
3257 1 22.98735687585072 0.12360103331341321 13.726531829517667 0 0 0
3258 1 24.55115999590636 1.5534361170139788 15.262424040614906 0 0 0
3295 1 25.94643386563218 2.956133526745218 13.77388993082636 0 0 0
3279 1 2.444890302581094 2.8140960665555776 13.689299025267873 0 0 0
3278 1 1.1347969328445924 4.4725454108837575 15.304232083493174 0 0 0
3315 1 2.472578792378921 5.783955553376008 13.821700778987312 0 0 0
3277 1 -0.22012760014173666 2.992763091251195 13.689307952950154 0 0 0
3280 1 3.954046628048145 4.302476241033883 15.015354461244112 0 0 0
3317 1 5.373557806165317 5.893473787520923 13.769073609970516 0 0 0
3283 1 8.397171078274356 2.924105992733429 13.867912569085473 0 0 0
3282 1 6.807996661760077 4.3818643182254045 15.218493153871197 0 0 0
3319 1 8.31725160038512 5.754115599136456 13.7323065500568 0 0 0
3285 1 11.343882508377282 2.93278582408702 13.65391166340274 0 0 0
3284 1 9.951273140659888 4.446595647867734 15.234235606207545 0 0 0
3321 1 11.213444991220046 5.888243225795497 13.686630514952009 0 0 0
3286 1 12.848655580829684 4.533417093898934 15.094381761356653 0 0 0
3287 1 14.222745962351166 2.8725240153111544 13.636238411138546 0 0 0
3288 1 15.886348418376777 4.264637872717602 15.139391183360456 0 0 0
3323 1 14.279451110343125 5.966605168353183 13.727763327905324 0 0 0
3289 1 17.337274502663014 3.038639844841824 13.479750149620408 0 0 0
3290 1 18.768341714480936 4.420056376274834 15.129211864009113 0 0 0
3325 1 17.22263194712884 5.954224714557867 13.544078048155303 0 0 0
3291 1 20.146112658938915 3.0029754375727933 13.600714998202173 0 0 0
3292 1 21.328154889723542 4.543580725969506 15.198028373713104 0 0 0
3327 1 20.004276102584832 5.935665684962259 13.696280909232156 0 0 0
3293 1 22.921961262105288 3.2362162428421826 13.745037520388392 0 0 0
3294 1 24.558796536103387 4.4329289728834285 15.141073526005188 0 0 0
3329 1 23.106471374779353 5.796058878188943 13.852219347789607 0 0 0
5310 1 24.63975692415406 10.2334178014287 23.748792652128657 0 0 0
3314 1 1.123536804363105 7.441538037446738 15.177217422922116 0 0 0
3351 1 2.587986252818562 9.00707557593149 13.681528219597729 0 0 0
3349 1 -0.26731826661531577 9.037053201664836 13.854826500142618 0 0 0
3316 1 4.014492859044425 7.380648124518644 15.048498553135133 0 0 0
3353 1 5.52827561903292 8.877234987328949 13.858483913549994 0 0 0
3318 1 6.966481385773488 7.331908440650844 15.094936785638923 0 0 0
3355 1 8.445153818335072 8.810222271997267 13.89127862390716 0 0 0
3320 1 9.853139880601345 7.347425418331502 15.174605942140172 0 0 0
3357 1 11.359026129028084 9.060641853117309 13.802912382565674 0 0 0
3322 1 12.722587683234309 7.378638490725313 15.155151785346181 0 0 0
3324 1 15.873727728823546 7.2385871262465695 15.089194045874953 0 0 0
3359 1 14.239690029191449 8.917701563537886 13.665805033301227 0 0 0
3326 1 18.639956967825363 7.395572888625933 15.088981416100605 0 0 0
3361 1 16.977458411557077 8.89737289956617 13.492193134549714 0 0 0
3328 1 21.59451387664158 7.476889944915523 15.150864410317059 0 0 0
3363 1 20.189881040167187 8.74002603078502 13.561114619436708 0 0 0
3330 1 24.43570296747765 7.424893361313498 15.104933608578 0 0 0
3365 1 23.08966309141838 8.933563761602851 13.686994858925637 0 0 0
3367 1 25.941832891466657 8.826346734842883 13.519388928305975 0 0 0
3350 1 1.0528527775371392 10.509051852843426 15.211922860634624 0 0 0
3387 1 2.7026780829345567 11.741816420813224 13.778993196871399 0 0 0
5993 1 23.403814959916055 11.806429311006479 25.476414073509208 0 0 0
3352 1 4.1321148482797705 10.258138139883092 15.257927528958339 0 0 0
3389 1 5.7658300943778045 11.763957700710156 13.649804816977968 0 0 0
3354 1 6.96453761427464 10.367062659519105 15.332675273046924 0 0 0
3391 1 8.635957380641361 11.768232259727151 13.568645395484944 0 0 0
3356 1 9.875809679087798 10.420012081707906 15.274306960283768 0 0 0