LAMMPS data file via write_data, version 2 Aug 2023, timestep = 1500000, units = metal

11664 atoms
1 atom types

-0.4832101243358231 52.39606306442338 xlo xhi
-0.483012692978285 52.39626049577968 ylo yhi
-0.48346192127485565 52.39581126748268 zlo zhi

Masses

1 55.847

Atoms # atomic

2 1 1.124940736501465 1.6713290613234082 0.3936140168465485 0 0 0
651 1 2.4234448974482756 0.08800697552619074 1.7876492208062085 0 0 0
649 1 -0.4290029140493307 0.15840061684018703 1.6706958832772933 0 0 0
4 1 3.791299232820828 1.4161530074857858 0.3382858787862776 0 0 0
653 1 5.060435893864893 -0.14446077420854164 1.848622431159522 0 0 0
6 1 6.659057657571663 1.4202471745109406 -0.003795384149941794 0 0 0
655 1 8.180095892065864 0.22221636885277596 1.8112436149689124 0 0 0
8 1 9.632507099280833 1.4842423408630891 0.3064026715228193 0 0 0
657 1 11.367629653454962 0.03142212342746031 1.7438986298896806 0 0 0
10 1 12.774879184814095 1.573784181624132 0.1565674847205062 0 0 0
12 1 15.671909810385387 1.3517372281585531 0.2798272090191566 0 0 0
659 1 14.094229233345978 0.046566213581241356 1.7036780837115626 0 0 0
14 1 18.3474136151369 1.6985913834677118 0.3770990649596784 0 0 0
661 1 17.23980660851982 0.00535308388049982 1.7542667654569106 0 0 0
16 1 21.69414348915789 1.4746976116199069 0.4367440661587261 0 0 0
663 1 19.8360832047907 0.2546254881471588 1.6028458448865055 0 0 0
665 1 22.985363940732192 0.00604379100073843 1.7566461111182168 0 0 0
18 1 24.544873420673767 1.5000768345589823 0.41553431093839954 0 0 0
667 1 25.93857897184515 -0.00836520298835447 1.8816515422096756 0 0 0
687 1 2.6140930935907174 2.9814226440064164 1.9441022920037065 0 0 0
38 1 1.2138324243944758 4.514971831747785 0.5009604600650792 0 0 0
723 1 2.473896941159265 6.237589471770761 2.01856982022861 0 0 0
2718 1 24.638738935410228 10.150947043519881 11.719808455705488 0 0 0
2753 1 23.04985980724772 11.721505618354225 10.479682551523375 0 0 0
689 1 5.241440316848339 2.951654385327166 1.5637078206567852 0 0 0
40 1 3.891290335347845 4.50864472197825 0.35357882619150616 0 0 0
725 1 5.265071615511025 6.151262769381289 1.827111627560913 0 0 0
691 1 8.362118447494122 3.0042532742582284 1.6269960187243515 0 0 0
42 1 6.729566142143738 4.576712876855959 0.2913514851906317 0 0 0
727 1 8.201814600729506 5.9786104153826445 1.8476280798387257 0 0 0
693 1 11.230548632634397 2.71271833142974 1.654094025172237 0 0 0
44 1 9.88462986824028 4.301784847882688 0.2599449977993369 0 0 0
46 1 12.56795356584793 4.596141465330875 0.5264260439304089 0 0 0
695 1 14.112317210026205 3.03900582402757 1.5474518576439302 0 0 0
48 1 15.700452371762196 4.8070969256903435 0.5221848656611436 0 0 0
731 1 14.097553734717389 5.944668647806482 1.9088722346408553 0 0 0
697 1 16.984604089138482 3.0351909496395733 1.898749228895804 0 0 0
50 1 18.27632469197065 4.656836313043068 0.41040995708560424 0 0 0
733 1 17.08595438198478 6.130413887149897 1.9868371344140745 0 0 0
699 1 19.832020865458738 3.1063106883337297 1.7907163789586678 0 0 0
52 1 21.343014838365942 4.389703934769324 0.33828565852139536 0 0 0
735 1 20.05627708386474 5.844048473498576 2.013458736002994 0 0 0
701 1 22.862764125064313 3.065793536314327 1.7996267351966622 0 0 0
54 1 24.7040184681827 4.323514270911822 0.33237018525965567 0 0 0
2716 1 21.726578325291 10.22866715632089 11.871609069666924 0 0 0
737 1 23.042712244398437 5.998341444027121 1.9248741266183855 0 0 0
74 1 0.8722056161314327 7.491115483269843 0.44998379894781737 0 0 0
759 1 2.4922300436991116 8.970853517748028 1.607609866761098 0 0 0
2751 1 20.26895532482372 11.997856130464902 10.537836844793544 0 0 0
76 1 3.805774442943008 7.338226541490987 0.23531236128285504 0 0 0
761 1 5.30532362247829 8.90117938124318 1.5582259814701325 0 0 0
78 1 6.891753769476765 7.4074520175475165 0.28189262693994965 0 0 0
763 1 8.35294913810994 8.89326994413056 1.7030752443655595 0 0 0
729 1 11.152642724024975 6.000990934187818 1.970337588229107 0 0 0
80 1 9.687368596407897 7.354386113574508 0.29957144333468666 0 0 0
765 1 11.070234738476318 9.236876895641258 1.6852145973959458 0 0 0
82 1 12.527286641004595 7.416330467303432 0.5212664594850058 0 0 0
767 1 14.074353058953026 9.05392672315796 1.6541813124028124 0 0 0
84 1 15.58664105224572 7.51729011538402 0.4751771987840153 0 0 0
86 1 18.681716175790314 7.390499512568403 0.5805786819623815 0 0 0
769 1 17.16282796833086 8.868686699679165 1.852506853949361 0 0 0
88 1 21.49883109294795 7.25406927927061 0.2940940360494272 0 0 0
771 1 20.301752004061374 8.818893979797851 2.091232621205241 0 0 0
773 1 23.0447898072476 8.854975138327811 1.6864411926585414 0 0 0
90 1 24.501667391843423 7.391215140926194 0.11166835456142843 0 0 0
110 1 0.882967879081413 10.337169547778112 0.23054963960000052 0 0 0
795 1 2.5682696352505996 11.639244610610417 2.0431067326930132 0 0 0
793 1 -0.4527182233560789 11.869970634800977 1.9006360725991942 0 0 0
112 1 3.8727377042227316 10.497762868939938 0.2882934858069611 0 0 0
797 1 5.408482738074085 11.771282124810002 1.683421945422341 0 0 0
114 1 6.837782568894969 10.265087710852761 0.40230824114074637 0 0 0
799 1 8.164898450476167 11.974716128177263 1.9437909520754477 0 0 0
116 1 9.564656716206228 10.354039105511267 0.2502958740727218 0 0 0
801 1 11.141074724575926 11.929695221500285 1.7102629926234054 0 0 0
118 1 12.6536668867204 10.450975991069754 0.2414127686705395 0 0 0
803 1 14.031897791206703 11.92858483610344 1.699332248391268 0 0 0
120 1 15.57985200093011 10.381616608478655 0.2856863761764633 0 0 0
122 1 18.88545251519013 10.327901931140863 0.4789006821773303 0 0 0
805 1 17.315626198373447 11.966654327661058 1.66922957602084 0 0 0
124 1 21.588681415622226 10.272542513020626 0.3277271961092424 0 0 0
807 1 20.25564117621167 11.837667384442266 1.7740470205591805 0 0 0
809 1 23.104871123379848 11.686258484168123 1.6588791391665558 0 0 0
126 1 24.84757846143726 10.418997130674137 0.12888571907592916 0 0 0
2749 1 17.283540504360715 11.783337718084752 10.611776837991856 0 0 0
650 1 1.0528249820231756 1.6381030361169775 3.202350303889156 0 0 0
1299 1 2.5166583508058618 0.0435706066396373 4.554836953441983 0 0 0
2714 1 18.751130917996907 10.291137128034297 11.903116657751783 0 0 0
652 1 4.067332550228526 1.6195211836158299 3.2847970808115057 0 0 0
1301 1 5.222226525346561 0.0448593144735252 4.661846630625162 0 0 0
1303 1 8.265301095816872 0.14278296077253227 4.71497997655093 0 0 0
654 1 6.6132049429261865 1.7003313249292238 3.153768137248922 0 0 0
656 1 9.626815361083255 1.5600911023110617 3.0916569500202935 0 0 0
1305 1 11.386100931385723 0.2848892345548545 4.669465226726188 0 0 0
658 1 12.987998859473796 1.5778698117375778 3.1261895242725135 0 0 0
1307 1 14.312424609232808 0.168289885887983 4.862043367604709 0 0 0
660 1 15.738437050818892 1.3727091143476606 3.2368133293170493 0 0 0
1308 1 15.581456254878823 1.5744001042119407 6.38913244347191 0 0 0
662 1 18.49698205909422 1.5581210725416157 3.3762973911487912 0 0 0
1309 1 17.070362410875447 0.027627182424350916 4.772850436058086 0 0 0
1311 1 20.00483956615963 0.11374583011402961 4.685530269507989 0 0 0
664 1 21.416432308816745 1.473603086049342 3.2198334921272624 0 0 0
1312 1 21.564371961677 1.4994086027004445 6.092265836104322 0 0 0
1313 1 22.785284759588315 -0.13446831209413102 4.753369759316969 0 0 0
666 1 24.374923514182488 1.4792706010399732 3.149161112587326 0 0 0
1335 1 2.6347179062912174 2.927942362374362 4.734265126027421 0 0 0
686 1 1.1301087255015176 4.436773631208356 3.288707332201894 0 0 0
1371 1 2.535182451118653 6.127354438944656 4.6703640597737595 0 0 0
1333 1 -0.45758980068842714 2.854284740062535 4.714514512120732 0 0 0
1337 1 5.265295390827497 3.1228743348985137 4.867986872230473 0 0 0
688 1 4.066261587328639 4.643351006045845 3.3024496526534715 0 0 0
1373 1 5.392922471283077 6.234524245177797 4.570377980545101 0 0 0
1336 1 3.858686770883457 4.770159809206107 6.1189645158145325 0 0 0
1339 1 8.304137042571286 2.7893435653270697 4.631119084463576 0 0 0
690 1 6.866360866605682 4.598018669661019 3.2607566982231795 0 0 0
1375 1 8.480615586172014 5.9543642129316 4.6516039157435 0 0 0
1341 1 11.216709369258323 2.9791185463407754 4.809714813136893 0 0 0
692 1 9.832252453523854 4.43478504614625 3.1376455661229494 0 0 0
1377 1 11.086958881387151 5.901473610755695 4.485616722919825 0 0 0
694 1 12.574224520812546 4.359031885898854 3.117038289353148 0 0 0
1342 1 12.87296386415517 4.456892297182566 5.9842654537545386 0 0 0
1343 1 14.224080455223238 2.9788474053849043 4.642112861304325 0 0 0
696 1 15.507424034242337 4.554609410832131 3.3737664156942495 0 0 0
1379 1 13.958065371077641 6.050379823243144 4.606334208523908 0 0 0
1345 1 16.94302307189958 2.966548375725203 4.903846426913402 0 0 0
698 1 18.36644475662692 4.432396453378534 3.31555244994469 0 0 0
1381 1 16.981831028467493 5.9550573722396125 4.724042298630719 0 0 0
1347 1 19.98090394036912 2.921857698493737 4.758681512818142 0 0 0
700 1 21.381584190544142 4.267500329668154 3.410055496729569 0 0 0
1383 1 20.04660010766616 5.8031984210409036 4.614992999746134 0 0 0
1349 1 23.0894888748365 2.830696520906936 4.663649216509115 0 0 0
702 1 24.489238688546738 4.320048718936679 3.1883011305447866 0 0 0
722 1 0.9254514509494052 7.718356719343241 3.2756213813341977 0 0 0
1407 1 2.2909375409730077 8.960316046690197 4.818517364177501 0 0 0
1369 1 -0.20204787812499325 6.077232632635613 4.620042481702164 0 0 0
2712 1 15.753787597058789 10.393375392030364 11.982982411755465 0 0 0
724 1 3.8976875515457996 7.80964248400454 3.3268631407385754 0 0 0
1409 1 5.566153598045071 8.891491473660434 4.818611569538657 0 0 0
726 1 7.128338341029545 7.577314982332034 3.2975621175079524 0 0 0
1411 1 8.47532416361772 9.09280663260114 4.749479891975402 0 0 0
728 1 9.862973797007042 7.6015571532818935 3.282241067798037 0 0 0
1413 1 11.317861444035115 8.888465601028438 4.849588742501749 0 0 0
730 1 12.698027381027044 7.577863198258422 3.2263027979698786 0 0 0
1415 1 14.032361833774118 9.089687921936711 4.544455810262228 0 0 0
732 1 15.523778848890785 7.544277526473424 3.2518177436168823 0 0 0
734 1 18.70829882732332 7.486654996843011 3.330048299368925 0 0 0
1417 1 17.222695950379173 8.801723987071918 4.8022135556753875 0 0 0
736 1 21.676418655221205 7.2695675406826625 3.4530009372347146 0 0 0
1419 1 20.125889595121745 8.827779180585882 4.8163661412823595 0 0 0
1385 1 23.133656399996177 5.522701511295038 4.704547503687791 0 0 0
1421 1 23.01814238291996 8.761289389338904 4.819689707556733 0 0 0
738 1 24.560133425107917 7.548936316600345 3.385132996814553 0 0 0
758 1 0.7639753610089082 10.250243605505966 3.1618543569404194 0 0 0
1443 1 2.473568982897761 11.947565995248343 4.593731345123053 0 0 0
1441 1 -0.4640266319557978 12.080078546194951 4.667597309208823 0 0 0
760 1 4.166279227621199 10.493998775799186 3.5189246114996138 0 0 0
1445 1 5.671196367179325 11.968814748501117 4.8259733050606775 0 0 0
762 1 6.880008020641528 10.260358392219816 3.2902077062205146 0 0 0
1447 1 8.177739680379839 12.077832500261156 4.727072524090991 0 0 0
764 1 9.7548741216737 10.63434582024004 3.121752342427138 0 0 0
1449 1 11.25336055759664 11.950948733302049 4.631726171586163 0 0 0
766 1 12.68522274063966 10.515606120475187 3.0799450758013625 0 0 0
1451 1 13.978083547890332 11.915120979748087 4.635287267962288 0 0 0
768 1 15.708371566084445 10.353351110155096 3.2017872804918652 0 0 0
770 1 18.621238270167158 10.391359294658027 3.1842057910658608 0 0 0
1453 1 17.101890713860506 11.737388254797718 4.6400599394921525 0 0 0
772 1 21.740413464774644 10.310147428660914 3.1443171127562914 0 0 0
1455 1 19.99244379894933 11.819179109015156 4.63832696461094 0 0 0
774 1 24.58730452933971 10.280752311161649 3.270436865255888 0 0 0
1457 1 23.165207081357373 11.773562506440225 4.572484515602369 0 0 0
2747 1 14.273303197169575 11.925667838354716 10.38448762129296 0 0 0
1298 1 1.0592086950434907 1.6887726676591122 6.169877880110226 0 0 0
1947 1 2.539693836511694 0.14905468691490986 7.775373442694841 0 0 0
1946 1 1.0930551467260583 1.6519634558077327 8.876343722686578 0 0 0
1981 1 -0.4762407196615734 3.1191576922443494 7.489714899854922 0 0 0
1945 1 -0.20203480159347464 0.17931506751540804 7.634842002014974 0 0 0
1300 1 3.9738947238834017 1.5525826487641012 6.413773117369581 0 0 0
1949 1 5.427930917174921 0.043134128394444415 7.821888779298831 0 0 0
1948 1 3.9818515977079585 1.62722224006923 9.169014688861427 0 0 0
1302 1 6.772898636228558 1.4334624660864566 6.292123727323694 0 0 0
1951 1 8.282643994454503 0.05418190425931135 7.715132466922263 0 0 0
1304 1 9.681724351540003 1.6897262492674132 6.287484095709004 0 0 0
1953 1 11.330313405514985 0.13904082498758574 7.6624692076615695 0 0 0
1952 1 9.803297393094898 1.6819406240269381 8.926053532113686 0 0 0
1306 1 12.844189037119536 1.571372971881087 6.227779101919603 0 0 0
1954 1 12.775970562818028 1.615103998577791 9.064653725612732 0 0 0
1955 1 14.228213185535026 -0.05424507042014726 7.79188148193076 0 0 0
1956 1 15.60172965265398 1.4342628034027327 9.192845274877092 0 0 0
1310 1 18.547571686667876 1.5108597192848332 6.146614952705603 0 0 0
1957 1 17.104304384392627 0.1480327960686113 7.652595290024147 0 0 0
1958 1 18.61406523600937 1.816974468191503 9.235657585844509 0 0 0
1959 1 19.999095962412508 0.2105334641360178 7.568456948840964 0 0 0
1960 1 21.630497511908413 1.485315101316694 9.114729491863484 0 0 0
1995 1 20.18610986344061 2.917383257197526 7.691337147772511 0 0 0
1314 1 24.552484544938007 1.7542971341059 6.2125740860947065 0 0 0
1961 1 23.09918063444595 0.07661610602282998 7.339299732081215 0 0 0
1962 1 24.306139478668864 1.4904120236590719 9.064334835960151 0 0 0
1963 1 25.813271798320034 0.10288889737133533 7.65517842024634 0 0 0
1334 1 1.0750485689521116 4.480516218856837 6.102097869997194 0 0 0
1983 1 2.576790361600723 3.2464387606533633 7.517301533551631 0 0 0
2019 1 2.63708463376271 6.03440159247017 7.881425046783889 0 0 0
2745 1 11.41585693118978 11.674522919521168 10.590048527202137 0 0 0
1982 1 1.1623062724051216 4.603369319577919 9.121159457698644 0 0 0
1985 1 5.488219289160799 3.2831234244655962 7.589826081479432 0 0 0
2021 1 5.408895197568984 6.062379628965972 7.793637355058541 0 0 0
1338 1 6.7627816431093475 4.610626559208791 6.07968484101805 0 0 0
1987 1 8.1078247338813 3.3062359766203167 7.632843569742583 0 0 0
1986 1 6.919461414924829 4.510740979255165 9.53548723804096 0 0 0
2023 1 8.218414600914386 5.957913892567792 7.962034102380459 0 0 0
1340 1 9.783848765639922 4.472189784972143 6.08003442323251 0 0 0
1988 1 9.967171412549927 4.669600762283165 9.095194034850746 0 0 0
1989 1 11.36407389800439 3.0625540772616597 7.4492423178313905 0 0 0
2025 1 11.568504360624605 5.716626394655751 7.5875784839524965 0 0 0
1344 1 15.482280708587774 4.609878028635944 6.07782911665052 0 0 0
1990 1 12.86081480776416 4.474402641682846 9.229238915138549 0 0 0
1991 1 14.32298942827217 3.074499161151864 7.750018999614719 0 0 0
1992 1 15.887481875608806 4.417263262552947 9.233926210196453 0 0 0
2027 1 14.272232780188506 5.935987111868527 7.6151583060495565 0 0 0
1346 1 18.65627322034333 4.491672060782236 6.10150580750203 0 0 0
1993 1 17.132664182583422 3.085732930931153 7.59344555509089 0 0 0
2029 1 17.223219827022387 5.840139500527356 7.44568914417419 0 0 0
1994 1 18.721668974500943 4.446657929075206 8.938093465711445 0 0 0
1348 1 21.38241002393302 4.38601045579934 6.158649911846623 0 0 0
2031 1 20.143273783188707 5.924946707510918 7.49845907749117 0 0 0
1996 1 21.493514866912335 4.501673350328301 9.044626982230401 0 0 0
1350 1 24.541637536947544 4.287041516501817 6.3977112932814135 0 0 0
1997 1 22.910905441879837 3.001520614045426 7.65499671904173 0 0 0
1998 1 24.556244006613344 4.210430621080664 9.18835720602792 0 0 0
2033 1 23.019413577922712 5.845504362685601 7.7406631535997175 0 0 0
1370 1 0.9879367563933816 7.279462693414098 6.31837696458965 0 0 0
2055 1 2.428949399164305 8.784431904831305 7.724681941834371 0 0 0
2018 1 0.9640224982393957 7.373302228224096 9.376610662343078 0 0 0
2053 1 -0.26713139730213087 8.776223613962575 7.764679117571809 0 0 0
1372 1 3.9649620185567613 7.459188942502221 6.1374014883548265 0 0 0
2057 1 5.566572703556741 8.75457347594749 7.708282684465516 0 0 0
2020 1 4.019227673500918 7.363276928600975 9.386636532752995 0 0 0
1374 1 6.860425131338054 7.402385790049375 6.14444291161359 0 0 0
2059 1 8.321001748483132 8.72100687831625 7.632815358759347 0 0 0
2022 1 6.748474264546975 7.334402337704936 9.378209568079633 0 0 0
1376 1 9.948112900903809 7.3649531461939794 6.18486974813915 0 0 0
2061 1 11.27668204916698 9.02767785605785 7.515833642684583 0 0 0
2024 1 9.976292303379863 7.291628929776072 8.890809742546473 0 0 0
1378 1 12.724405377882704 7.321599802284265 6.126746676437146 0 0 0
2026 1 12.63228588064649 7.431546530943448 9.03978824315463 0 0 0
1380 1 15.574856691235247 7.4357594638801086 5.967966362291092 0 0 0
2063 1 14.168587774488579 8.807368071751977 7.4109805173248615 0 0 0
2028 1 15.979361402045559 7.408375747869423 9.041327746931321 0 0 0
1382 1 18.64102361279265 7.340019377729252 6.062544301855173 0 0 0
2065 1 17.08034530790572 8.998663945273103 7.496870449392399 0 0 0
2030 1 18.68022747825461 7.29412974880716 8.966402151874556 0 0 0
1384 1 21.683987209808635 7.211796862886373 6.110920316200824 0 0 0
2067 1 20.215434066508998 8.76987920961314 7.318470353848452 0 0 0
2032 1 21.501701542976996 7.2339297443246915 9.093907603480988 0 0 0
1386 1 24.354422399539015 7.152672953398173 6.193245082788324 0 0 0
2069 1 22.85967176993033 8.90845954726431 7.5927162783723485 0 0 0
2034 1 24.55015505771398 7.197809118839433 9.120137328061421 0 0 0
2708 1 9.768277442564925 10.285063203422165 11.87084064581976 0 0 0
1406 1 0.8281505561439035 10.604315254051999 6.024355318928421 0 0 0
2089 1 -0.382098602969522 11.691184048081857 7.7310881655128245 0 0 0
2091 1 2.405901026595812 11.710953272473501 7.6566007953741515 0 0 0
2054 1 1.0767738704168797 10.327692074873072 9.45098091824795 0 0 0
1408 1 3.798453286707595 10.359870223623986 6.271442071877449 0 0 0
2093 1 5.445242576179526 11.577595574890026 7.646828713156044 0 0 0
2056 1 4.0973403164816045 10.315150081856542 9.163591865241392 0 0 0
1410 1 6.975360444210012 10.380619917828652 6.320169557016417 0 0 0
2095 1 8.41988869987794 11.821799857519277 7.864610990679385 0 0 0
2058 1 7.065159981053711 10.221012284112186 9.3596873209652 0 0 0
1412 1 9.799558854560411 10.687200942695435 6.381637851810367 0 0 0
2097 1 11.418818419808415 11.84030789795172 7.893722989188436 0 0 0
2060 1 9.885787762662819 10.359339122283705 9.265781630846542 0 0 0
1414 1 12.706866853369567 10.501893639031268 6.2449009046198665 0 0 0
1416 1 15.475252931246237 10.407920300803594 5.960717432986753 0 0 0
2062 1 12.935848534102028 10.277619170439303 9.066671789991416 0 0 0
2099 1 14.09092789198119 12.001405513624189 7.653472953343465 0 0 0
2064 1 15.55995400985993 10.471280475389275 9.074002661644888 0 0 0
1418 1 18.637315590738435 10.42631003959179 6.038302613208234 0 0 0
2101 1 17.134221444600605 11.640450863132259 7.62903858324446 0 0 0
2066 1 18.622107557228052 10.368215892555305 9.161832538183928 0 0 0
1420 1 21.560570338851917 10.530704969644727 6.023411667300859 0 0 0
2068 1 21.39984357931131 10.30041991273078 9.010408895589226 0 0 0
2103 1 19.991856661036817 11.765884771190773 7.67899236852662 0 0 0
1422 1 24.44619070126793 10.191157898262201 6.305891536824302 0 0 0
2105 1 23.131930804930622 11.68682639284667 7.616217025222344 0 0 0
2070 1 24.676826171129004 10.228218632871911 9.13136422593923 0 0 0
2710 1 12.951904701580931 10.420052014211487 11.904534627248776 0 0 0
2595 1 2.5186473969468324 0.15577250728497338 10.489540192864613 0 0 0
2594 1 1.0235539938154907 1.5046889284708544 11.997211689037814 0 0 0
2593 1 -0.2227913871767359 -0.07176951500681689 10.234031323540146 0 0 0
2597 1 5.440468903328726 0.08053464993190274 10.633459872842343 0 0 0
2596 1 3.9045983112714477 1.5643933653012714 12.184220579290141 0 0 0
2633 1 5.376618120968126 2.8517890736523737 10.540378127615988 0 0 0
1950 1 7.012541586414395 1.627199239468359 9.245399993174335 0 0 0
2599 1 8.59910918741473 0.2274446630990592 10.722819061564007 0 0 0
2598 1 6.95339016783482 1.6638217957544006 11.981732902528657 0 0 0
2600 1 9.906123303448581 1.6910259831753174 12.187028405828784 0 0 0
2601 1 11.317519925114064 -0.00900214656990389 10.585454442567352 0 0 0
2602 1 12.75312314272419 1.4497276368715217 12.037241668736934 0 0 0
2603 1 14.123086500636562 -0.09623913082969826 10.574703712131024 0 0 0
2604 1 15.571457914783387 1.4641800306893296 12.199740194866203 0 0 0
2605 1 17.093918404041478 0.28133354394735854 10.797517896746529 0 0 0
2606 1 18.646706394195874 1.6447029915045102 12.20431930893555 0 0 0
2607 1 20.052252214658306 0.07173135114550688 10.525939840667677 0 0 0
2608 1 21.672844235300158 1.4710809894885835 12.081046123223086 0 0 0
2609 1 23.141745157558738 0.026027603240079134 10.675344005635127 0 0 0
2610 1 24.727994482575212 1.5582956074632417 12.009068043310362 0 0 0
2631 1 2.493434994745599 3.2305025687770974 10.598241403950395 0 0 0
2630 1 0.962109749812885 4.444737766478263 12.191915582966521 0 0 0
2667 1 2.429822620202927 6.002467863725637 10.585244899113377 0 0 0
2629 1 -0.2941046247142083 2.917053679113537 10.450684350672523 0 0 0
2665 1 -0.346405435251691 5.769048150265077 10.682859180073 0 0 0
1984 1 3.984575486123779 4.44722596434676 9.16856121199113 0 0 0
2632 1 3.9163657995248284 4.5668499184386535 12.114859616613801 0 0 0
2635 1 8.419174729010194 2.9833921686492086 10.636882748454951 0 0 0
2634 1 6.722557937462662 4.361755452616656 12.221501409794646 0 0 0
2671 1 8.53936559885384 5.960069438893984 10.78536719619657 0 0 0
2637 1 11.229702259434182 3.1262131858612534 10.50479446897351 0 0 0
2636 1 9.907910862564615 4.230666733876156 12.155722042326982 0 0 0
2673 1 11.11860274829483 6.026859622754408 10.619516639109644 0 0 0
2638 1 12.851812990019969 4.327241388843421 11.966656903859374 0 0 0
2639 1 14.20526831483463 2.905977098445957 10.541159481022563 0 0 0
2640 1 15.630262828178154 4.442213172903912 11.822578264481868 0 0 0
2641 1 17.04560529783857 2.841560623399057 10.697701068898487 0 0 0
2642 1 18.527603543206112 4.4402543283925935 11.942059022509838 0 0 0
2677 1 17.131294127857295 6.011734765843081 10.594725564135526 0 0 0
2643 1 20.243666423667086 3.066390970593606 10.56591913644048 0 0 0
2644 1 21.577775059027957 4.212087248476266 12.090539983458271 0 0 0
2679 1 20.18102932513979 5.704660457755869 10.722618496237446 0 0 0
2645 1 23.050982850285397 2.9058995375266963 10.620348872064932 0 0 0
2646 1 24.72525083803638 4.3954598126174 12.031150096125465 0 0 0
2681 1 23.00421315996841 5.970416144923332 10.711319300997111 0 0 0
2703 1 2.6107270141673236 8.850772483820947 10.637763040849546 0 0 0
2666 1 0.9673488796580549 7.407084513229601 12.318164441585687 0 0 0
2669 1 5.357477194207023 5.935977722601682 10.806926037789824 0 0 0
2705 1 5.471975136451261 9.01793156060073 10.79282532531388 0 0 0
2668 1 3.905516185647109 7.270323272694416 12.079107434891878 0 0 0
2707 1 8.598479766112021 8.692570257772955 10.547230476685849 0 0 0
2670 1 7.041626712655906 7.423371818143563 12.0506608289415 0 0 0
2709 1 11.55788581000766 8.906155058436209 10.571163590770121 0 0 0
2672 1 9.972996052232375 7.7074291466891065 12.286642646331092 0 0 0
2674 1 12.815676468188792 7.339916590802659 12.170219225148196 0 0 0
2675 1 14.31101677092083 6.045553728131019 10.492158857795559 0 0 0
2711 1 14.363133595263882 8.913010636242372 10.556181247311178 0 0 0
2676 1 15.667602396581941 7.521286846539464 12.111009991971047 0 0 0
2713 1 17.175664777675575 8.921584890013335 10.608898052627504 0 0 0
2678 1 18.771136425405714 7.264668850345539 12.114412951811786 0 0 0
2715 1 20.146055553613774 8.682032608245986 10.568619926824157 0 0 0
2680 1 21.45724760412647 7.467912272242289 12.19943471304286 0 0 0
2682 1 24.75420966458975 7.27630458459453 11.935180187131124 0 0 0
2717 1 22.976457458400372 8.63243405738077 10.409264328739653 0 0 0
2739 1 2.6443988689855242 11.646639003379384 10.66038055578047 0 0 0
2702 1 1.1824594321489432 10.528540490929858 12.264261532980743 0 0 0
2737 1 -0.42219101022967376 11.83415116510325 10.65084733930549 0 0 0
2704 1 3.996960382763647 10.602190024590966 12.22834636536199 0 0 0
2741 1 5.547918501256562 11.868923814899384 10.61520434429214 0 0 0
2706 1 6.934382135167078 10.606389278651541 12.197557612511536 0 0 0
2743 1 8.387776522193573 12.013284449198915 10.599250376799217 0 0 0
1315 1 25.71396557896246 -0.02813976288451253 4.657969037788644 0 0 0
1351 1 25.893565564119044 3.0224190666888915 4.581481717887095 0 0 0
1387 1 25.946185203642166 5.964586256495537 4.611133335540933 0 0 0
2035 1 25.9501080938783 5.75451735424769 7.735574285942766 0 0 0
2701 1 -0.3998802818249203 8.824653302011653 10.932502462105196 0 0 0
3242 1 1.122982758416813 1.5234829003911088 15.12750435384576 0 0 0
3243 1 2.5766196575192795 0.060864706234856514 13.570610774943312 0 0 0
3241 1 -0.3129018425989316 0.052942328588162724 13.761029020548543 0 0 0
3244 1 3.9354398788886416 1.4992165318475934 14.913085711341452 0 0 0
3245 1 5.541407003936611 0.04408216561679934 13.408810086823278 0 0 0
3246 1 7.056248735397463 1.471563186737276 15.03908008675099 0 0 0
3247 1 8.478694835221505 0.019775344072276435 13.477669256364203 0 0 0
3248 1 9.78134655735761 1.4851565978000616 14.907181799724693 0 0 0
3249 1 11.3614517959516 0.16986550279885215 13.457748562563722 0 0 0
3250 1 12.758247462325784 1.3630706167733122 15.33396080791656 0 0 0
3251 1 14.175525893145364 0.029582748052761287 13.646837181859127 0 0 0
3252 1 15.692413827659884 1.3598361570736122 14.965728831335511 0 0 0
3287 1 14.213997931095381 2.8836521015113012 13.54138046253549 0 0 0
3253 1 17.250340208154604 0.08705208009969956 13.709109188245513 0 0 0
3254 1 18.695393547154513 1.4953329357780905 15.158351698035604 0 0 0
3256 1 21.542157020301545 1.5939266008690236 15.156452761293584 0 0 0
3255 1 20.20293391984947 0.30015198757378847 13.61082520827399 0 0 0
3291 1 20.072116379627417 2.967075325211363 13.572657309020304 0 0 0
3257 1 23.151406187195658 0.12083797453829892 13.587973577470862 0 0 0
3258 1 24.572065586723852 1.4751315167196581 15.067216272412956 0 0 0
3279 1 2.655104015619886 3.031778324260869 13.665703737537756 0 0 0
3278 1 1.2533274111444006 4.688379807229425 14.997029678522479 0 0 0
3315 1 2.6629076390172224 6.065132895702501 13.644960144766486 0 0 0
3313 1 -0.33863772221577004 6.009509916934009 13.791125271767736 0 0 0
3281 1 5.578904560113504 2.9529012288678986 13.85801118435432 0 0 0
3280 1 4.019675746859034 4.734049073020911 15.104093465079883 0 0 0
3317 1 5.462177416130208 6.000013241832965 13.504230037159912 0 0 0
3283 1 8.333367710956034 3.078081538319442 13.627702236000408 0 0 0
3282 1 6.904750019884825 4.6624498377486345 15.170376605166359 0 0 0
3319 1 8.497910579046348 6.005238182056343 13.558922506787964 0 0 0
3285 1 11.413865937659967 2.9340641297199848 13.662241542009394 0 0 0
3284 1 9.633098838330985 4.425664854320446 15.07823026885779 0 0 0
3321 1 11.311863827117064 5.881220379576483 13.451573911384981 0 0 0
3286 1 12.830855934820677 4.328732414652885 15.033214829156043 0 0 0
3288 1 15.680458761971845 4.301680687383803 15.163439378001366 0 0 0
3323 1 14.336355099601477 5.720264526957973 13.585312615187807 0 0 0
3289 1 17.006184088749023 3.1892120706672498 13.460025291793738 0 0 0
3290 1 18.645947659547065 4.243084709811307 15.144348050187343 0 0 0
3325 1 17.09865866365082 5.885233487959349 13.685028904021971 0 0 0
3292 1 21.646097304292375 4.390471306668397 15.017680841831798 0 0 0
3327 1 20.157195747765687 5.848569947368532 13.590858299025417 0 0 0
3293 1 23.08843427408987 2.910717697646992 13.470455109706062 0 0 0
3294 1 24.534323001970076 4.400559142500993 14.96165731777727 0 0 0
3329 1 23.020348356549185 5.754483090753357 13.25870658204541 0 0 0
5310 1 24.418606211415756 10.323721042649483 23.858770755755767 0 0 0
3314 1 1.194385636288447 7.600350996234177 14.948924973512993 0 0 0
3351 1 2.7074592387141716 8.982503122412796 13.51152202444753 0 0 0
3316 1 4.168598593824705 7.687093242912837 15.027157134091567 0 0 0
3353 1 5.44664778731341 8.955742709033345 13.233367556807984 0 0 0
3318 1 6.790648451240404 7.4988322487688865 15.167300777606112 0 0 0
3355 1 8.237858459262892 9.106312328344172 13.451060875448727 0 0 0
3320 1 9.808653495987372 7.6889468090808695 14.83032111680805 0 0 0
3357 1 11.57910648040171 9.044061970027792 13.52595882118495 0 0 0
3322 1 12.899437764409184 7.362564148759532 14.885277729924418 0 0 0
3324 1 15.67195870120636 7.304651822978403 14.908472272015734 0 0 0
3359 1 14.32310658478813 9.042769756934486 13.447329465024145 0 0 0
3326 1 18.6649616341636 7.294772042799287 14.810504685592925 0 0 0
3361 1 17.216059076886225 9.058884168558995 13.457202777564035 0 0 0
3328 1 21.63134282324964 7.464459824156799 14.800210648384109 0 0 0
3363 1 20.11654304469652 9.044888617227365 13.62602639715488 0 0 0
3330 1 24.55481973905037 7.031725021287397 14.9085023397283 0 0 0
3365 1 23.11653959423623 8.843153733372706 13.290814068403868 0 0 0
3367 1 25.860284455769534 8.774589280954041 13.45626005532575 0 0 0
3350 1 1.4335680834611744 10.273631891859026 15.12325654225008 0 0 0
3387 1 2.5538473835936446 12.142693411860789 13.625619361975664 0 0 0
3385 1 -0.3921839024537993 11.85269643691325 13.949753701493226 0 0 0
3352 1 4.068367107128316 10.409265975211332 15.04876834432418 0 0 0
3389 1 5.467412475486155 11.883163193179096 13.560844897671009 0 0 0
3354 1 6.8291434892229645 10.357961287106589 15.003763869387884 0 0 0
3391 1 8.465574556229905 11.93421010502033 13.585261822594857 0 0 0
3356 1 9.876234533272674 10.361485502649794 15.217761330361903 0 0 0
3393 1 11.052677428434421 11.761039791143375 13.599828064394165 0 0 0
3358 1 13.044183937452484 10.361129760010051 14.929023869298893 0 0 0
3360 1 15.869401595280873 10.384673888423123 14.95360477227806 0 0 0
3395 1 14.42899450280995 11.868370805887533 13.495887187561069 0 0 0