LAMMPS data file via write_data, version 2 Aug 2023, timestep = 1700000, units = metal

11664 atoms
1 atom types

-0.532072981147234 52.44485650272314 xlo xhi
-0.5318492928356235 52.44508019103387 ylo yhi
-0.5323608959795258 52.44456858788898 zlo zhi

Masses

1 55.847

Atoms # atomic

2 1 1.0726055830596186 1.791934793935991 0.38447555827657864 0 0 0
651 1 2.4788086195768546 -0.19536750812329146 1.6892064918809395 0 0 0
1369 1 -0.38286759737605247 6.049893171631524 4.476162566998255 0 0 0
4 1 4.128141207002405 1.4431802442557384 0.23980033147688018 0 0 0
653 1 5.682448096093646 0.2888411258592093 1.9438861915229193 0 0 0
6 1 6.82570988452224 1.5249951970520628 -0.10288401624325444 0 0 0
655 1 8.465392985894482 0.23784491766199944 1.5530133083740787 0 0 0
8 1 9.7141671466602 1.8458413105543272 -0.026228518449818328 0 0 0
657 1 11.304248872265514 0.005240779998219369 1.505853110330651 0 0 0
10 1 12.896883719453449 1.6208496207911236 -0.049459264618556764 0 0 0
659 1 14.218965836282333 0.4635760028867698 1.6038347216756605 0 0 0
12 1 15.79002240796276 1.6239772695956813 0.03149674388123769 0 0 0
14 1 18.626639437138124 1.7175455714319403 -0.01714645943513493 0 0 0
661 1 17.158610148876612 0.11565664732035696 1.312880763993073 0 0 0
16 1 21.419421260393072 1.7370979291468611 0.2461907183179476 0 0 0
663 1 20.14984879982776 0.12705328841361074 1.6059074043802823 0 0 0
665 1 22.924482043152967 0.15798482566920802 1.675048917901449 0 0 0
18 1 24.23355275939943 1.4743779474598169 0.06518509238529413 0 0 0
1297 1 -0.46909983900944535 0.12860951685819066 4.4128653368040185 0 0 0
687 1 2.5940969176803197 2.988807749283431 1.8619744925539679 0 0 0
38 1 1.0484037502587067 4.451190638129684 0.1677948545014939 0 0 0
2593 1 -0.4224336747434894 0.08001525724249392 10.570927691953957 0 0 0
721 1 -0.47867888809988623 6.333104265401247 1.6932519553640306 0 0 0
689 1 5.3274523628054835 2.9258840804282302 1.897675028973922 0 0 0
40 1 3.9716344822288114 4.1486194491398285 0.23256337969270813 0 0 0
725 1 5.420075818217722 5.982641182376579 1.3457551187953993 0 0 0
691 1 8.247199916578014 3.0761808987565753 1.4351375463153335 0 0 0
42 1 6.713254496126495 4.672976823496926 -0.30173996891197064 0 0 0
727 1 8.394574295111664 6.122695213150906 1.3956647228226058 0 0 0
693 1 11.406045165252472 3.015942469325432 1.1698407037154461 0 0 0
44 1 9.59101731439821 4.6216281060243425 -0.07642836754767413 0 0 0
729 1 11.202408743615537 5.939168412059065 1.4368760567156649 0 0 0
46 1 13.166819391229419 4.376194717295215 0.036791081456989394 0 0 0
695 1 14.335606149469092 3.0230555870208757 1.719444223140178 0 0 0
48 1 15.76761429400485 4.422634921464464 0.28105372283601193 0 0 0
731 1 14.21227320623784 5.939661718093511 1.643863635902116 0 0 0
697 1 17.091708677001478 2.9219365548882132 1.6426125506100675 0 0 0
50 1 18.644143777442917 4.514448323714605 -0.05418983205591854 0 0 0
699 1 20.24921795526548 3.2627572145278743 1.7412420280866616 0 0 0
52 1 21.515288419791048 4.570891616129219 0.12448947862587967 0 0 0
735 1 20.098507793200895 6.026188586884809 1.65408348256285 0 0 0
701 1 23.021757612547795 3.1034901273060718 1.4595212044141654 0 0 0
54 1 24.65519968891274 4.543273580968564 0.05480347629962534 0 0 0
737 1 23.146471526492142 6.088262449818182 1.7217303567234996 0 0 0
2755 1 25.94900542683137 11.917073890038983 10.436720613330621 0 0 0
723 1 2.547863657407496 5.922535813186085 1.4465403496557045 0 0 0
74 1 1.097536077998213 7.545697307457596 0.22272871717869047 0 0 0
759 1 2.5895803655356113 9.236809204867379 1.6526300207210327 0 0 0
757 1 -0.3054103306093938 9.236765303499315 1.5379405781588629 0 0 0
76 1 3.8733046913595146 7.615436676209773 0.29196159471976835 0 0 0
761 1 5.425734895312345 8.933002071831098 1.6023060273789405 0 0 0
78 1 6.81578983572917 7.750741089713362 0.07894801969026044 0 0 0
763 1 8.481315740847023 9.09571634241011 1.6977819180138067 0 0 0
80 1 9.667144996231125 7.718740789494682 -0.048548156891407235 0 0 0
765 1 11.23128225012372 8.858187922253157 1.5541892001285107 0 0 0
82 1 12.594248692759864 7.523958381957714 0.07692056064986275 0 0 0
767 1 14.062350411197682 8.722295068098425 1.6027553141824176 0 0 0
84 1 15.716065968617265 7.664159545678949 0.07080420809205379 0 0 0
733 1 17.313478323337584 5.963974072252181 1.6064900038653662 0 0 0
86 1 18.6513788274619 7.444266498227012 0.21375522162289884 0 0 0
769 1 17.177707960261813 9.085669140968996 1.5430372068258893 0 0 0
88 1 21.76312997171713 7.582866080949035 0.19970448766683457 0 0 0
771 1 20.30131141486866 9.031762944304706 1.585493175864782 0 0 0
773 1 23.078251543083216 8.947982144244229 1.6715676795265835 0 0 0
90 1 24.602029733660277 7.765914142809896 0.17385328827816626 0 0 0
1351 1 25.86895881042049 2.906078181928058 4.754106427388558 0 0 0
110 1 1.1349307996524074 10.629641482791985 0.2815309309313049 0 0 0
795 1 2.751658969258256 11.951127752066482 1.6283091987802534 0 0 0
112 1 4.195615200788713 10.42026697220114 0.16857644218443157 0 0 0
797 1 5.541311102275984 11.848508687760056 1.6871106314244342 0 0 0
114 1 6.876433530280596 10.397696084997172 0.143719402802728 0 0 0
799 1 8.633031395773468 11.68169111509731 1.5112111410784426 0 0 0
116 1 9.70097977725675 10.161486162649787 -0.045259879259840374 0 0 0
801 1 11.353934771330048 11.744325151950456 1.3322174872341874 0 0 0
118 1 12.833521952181114 10.30289019109262 0.024505822317255066 0 0 0
803 1 14.33489426458956 12.045111938644842 1.662694707991173 0 0 0
120 1 15.597141762428539 10.381597760848258 0.3063302028666358 0 0 0
122 1 18.638029259870727 10.505677056936367 0.2196811944055539 0 0 0
805 1 17.094791987395332 12.08849856404612 1.733196478537061 0 0 0
124 1 21.61028553460635 10.495424445793539 0.1575162658788628 0 0 0
807 1 19.895480988631817 11.929080083411064 1.8773052252668463 0 0 0
809 1 23.22186987515909 12.058573646173906 1.2845156607781696 0 0 0
126 1 24.735083473468467 10.568087546263516 0.2518959525859954 0 0 0
650 1 0.7969467353825515 1.8286698865365545 2.9909517616299017 0 0 0
1299 1 2.283192614812593 0.055545302981453215 4.5285804061435675 0 0 0
2718 1 24.628600845734084 10.505299374540025 12.037999796495786 0 0 0
652 1 3.7718312308792283 1.1645468242073342 3.047103213533104 0 0 0
1301 1 5.520984718557243 0.1302549220614454 4.610649683310059 0 0 0
1300 1 3.8685382139248157 1.3482688648802683 5.796945617144746 0 0 0
1303 1 8.555753589151779 0.13460422864287203 4.667500304473013 0 0 0
654 1 7.243640627746634 1.6279994771693311 3.261839775800099 0 0 0
1302 1 6.891299322697988 1.6746096619446829 6.044799760411464 0 0 0
656 1 9.832209157362824 1.7177449557600366 2.948856605541199 0 0 0
1305 1 11.268249645830382 0.27706312784205067 4.573237929053805 0 0 0
658 1 12.667160113838499 1.6037099692951209 3.0597667782843385 0 0 0
1307 1 14.251982629124806 0.14386836006378556 4.540914153932115 0 0 0
660 1 15.771408051512267 1.6296902617057967 3.1017037585672607 0 0 0
1308 1 15.693241370036393 1.5370482748787575 5.971870361020789 0 0 0
662 1 18.623646328266965 1.7199957918892408 3.106984476572279 0 0 0
1309 1 17.10409163797953 0.19279664375761274 4.593535514994653 0 0 0
1310 1 18.58076766886906 1.57270660008307 5.944070595795402 0 0 0
664 1 21.88971056314969 1.7535330296148222 3.060696498382473 0 0 0
1311 1 20.31192171761567 -0.08560489421306772 4.539158067430376 0 0 0
1312 1 21.68200610214603 1.57510646720973 5.992998941791217 0 0 0
666 1 24.463414766801034 1.6436943854015578 3.175529314430543 0 0 0
1313 1 23.246212099612116 0.1457163574493554 4.674314094273464 0 0 0
1314 1 24.50031622357001 1.5871232576818315 6.314129646048685 0 0 0
2753 1 23.029059827453427 11.94757195547462 10.589271763108895 0 0 0
686 1 0.864277724755542 4.7358462373531225 2.855800243493715 0 0 0
1335 1 2.3195860964959896 3.0540315411236922 4.494080716302406 0 0 0
2747 1 14.317207205038931 11.846071780302072 10.232665749101248 0 0 0
1371 1 2.387914016393711 6.086178494046685 4.448851537455066 0 0 0
1334 1 0.8680588499472237 4.438093828322083 5.823798304551662 0 0 0
1337 1 5.5911605242971225 3.1052217071549966 4.4852712945026685 0 0 0
688 1 4.100642782664047 4.788969657912652 3.148558584958426 0 0 0
1336 1 3.8155554349106326 4.745444873088037 5.7188754422748955 0 0 0
1339 1 8.474311346860098 3.0258294002816206 4.637532642214078 0 0 0
690 1 6.971112589918929 4.502707116633821 2.8714553869292847 0 0 0
1338 1 7.033643945416412 4.6113971150521404 5.886449434880853 0 0 0
1375 1 8.389803282287957 5.908952778195653 4.3319313160184025 0 0 0
692 1 9.777317851402392 4.566375607078227 2.7876283669799853 0 0 0
1341 1 11.173251722018653 3.195719331434191 4.511168668463796 0 0 0
1377 1 11.326822925543413 5.966170252043541 4.467074375084008 0 0 0
694 1 12.582063089257971 4.458241736960404 2.9194237028372285 0 0 0
696 1 15.832371108555755 4.640446968618208 3.0429105667439575 0 0 0
1343 1 14.138329786268207 2.9814974666772778 4.371390061633459 0 0 0
1342 1 12.845466496578672 4.420298542971801 5.959687159167279 0 0 0
1344 1 15.770770867939095 4.5454878566087675 5.964471374388378 0 0 0
698 1 18.71952014490371 4.5372923575316175 3.0168734455439132 0 0 0
1345 1 17.133074580196855 3.0687992654881824 4.412107404751983 0 0 0
700 1 21.790254865948924 4.4460334717476 3.1280953702310677 0 0 0
1347 1 20.350209191889093 3.068041304697539 4.390756426117055 0 0 0
1383 1 20.2072862689718 5.809735392010457 4.432440396927197 0 0 0
1348 1 21.728062559212233 4.737763150481228 5.94867604066257 0 0 0
1349 1 22.984597290494722 3.0791633678099726 4.693987291783632 0 0 0
702 1 24.681231307274228 4.564747424683737 2.7822203131681285 0 0 0
2716 1 21.678677654213832 10.545472944051664 12.174720500485519 0 0 0
722 1 1.1504540012374334 7.8349556087116685 3.065942589946698 0 0 0
1407 1 2.653733951453041 9.05365479242514 4.62448735935825 0 0 0
2751 1 20.348586058459368 12.004063254669594 10.619976545744494 0 0 0
1373 1 5.546052578795483 6.239596394850115 4.50008285750918 0 0 0
724 1 4.073207803868106 7.484671259581479 3.1762853465780188 0 0 0
1409 1 5.745397634539498 9.073537461286566 4.819653703936889 0 0 0
726 1 7.153367058304013 7.489928791921189 3.0159889315607367 0 0 0
1411 1 8.57937682309845 8.824343345641111 4.402999800336211 0 0 0
1374 1 6.988952992956984 7.364035585052583 5.999442235504154 0 0 0
728 1 9.969329959491184 7.379392455284345 3.0966428872805225 0 0 0
1376 1 9.829965451082133 7.311801233806184 6.1947964006054645 0 0 0
730 1 12.603520348670768 7.315333012640676 2.85380451416029 0 0 0
1413 1 11.508072088561129 8.888082873224912 4.485897267789826 0 0 0
1379 1 14.068280273465822 6.110962071708631 4.391590725974494 0 0 0
1415 1 14.347041128782733 8.808767809781427 4.506351357787642 0 0 0
732 1 15.822646769789134 7.555603302159401 2.940449755853324 0 0 0
1380 1 15.607539053738545 7.507724091787086 6.017652390930845 0 0 0
1381 1 17.170203310610926 6.152619397507506 4.591289258175502 0 0 0
734 1 18.876845022157955 7.536890449084499 2.997475530088906 0 0 0
1417 1 17.19937563287888 8.83811742889853 4.590248785605546 0 0 0
736 1 21.833522610107533 7.341065429314077 3.2973830023243234 0 0 0
1419 1 20.39500658167807 9.09443377900765 4.380227649932364 0 0 0
1384 1 21.790580542612773 7.4092012875172175 5.963656451804413 0 0 0
1385 1 23.35082549363864 5.96347344580325 4.5366693845626935 0 0 0
738 1 24.743557095043354 7.6018436745484355 3.095514272595949 0 0 0
1421 1 23.034106606200357 8.927441063305126 4.601417633960022 0 0 0
2712 1 15.464353470758672 10.548293941072693 12.00330323045231 0 0 0
758 1 0.9759475042978785 10.56270371934772 3.166140936059312 0 0 0
1443 1 2.5297142422266505 12.025264334400688 4.483092959021636 0 0 0
2710 1 12.790292696501902 10.38862547807112 11.845277914102684 0 0 0
760 1 4.287024096048395 10.35751703047317 3.211862957507115 0 0 0
1445 1 5.538645324717521 12.039813832231957 4.558579538009699 0 0 0
1408 1 4.093498220677927 10.440383957290614 5.964170798199483 0 0 0
762 1 7.111602704652311 10.55710494684165 3.3690993326753618 0 0 0
1447 1 8.727157977281758 12.049583530552606 4.360843927137 0 0 0
764 1 10.055294469512477 10.538679678550446 3.0344593936656232 0 0 0
1449 1 11.526024360583147 11.931031289875001 4.594191898777709 0 0 0
1412 1 10.111861362145635 10.586955361284383 5.905669021465447 0 0 0
766 1 12.85419467266324 10.384963928801856 3.1120953662339708 0 0 0
1451 1 14.515453941841068 11.849994223742929 4.496546196182332 0 0 0
768 1 15.69826281235742 10.304099084975313 2.9295859143065353 0 0 0
1416 1 15.900386932250061 10.414703211881232 5.9933209279657245 0 0 0
770 1 18.582474051760336 10.319489446586733 3.0467596815271283 0 0 0
1453 1 17.110679837961733 11.999946067914125 4.492362649435946 0 0 0
1418 1 18.632816945783638 10.368770600130869 5.6793654292484455 0 0 0
772 1 21.658463847410196 10.62194121527765 2.9491735865032664 0 0 0
1455 1 20.211871056885567 11.829091674318402 4.630529551922677 0 0 0
1457 1 23.181220706966624 11.906590232903623 4.8629466380266075 0 0 0
774 1 24.705852154899375 10.604118700926664 3.1044901572307624 0 0 0
1422 1 24.681454955834337 10.431734016624423 6.1022135031347045 0 0 0
1298 1 0.8907336208923957 1.718855205022984 6.062674396096866 0 0 0
1946 1 1.0916277393004499 1.7691359790179595 8.901988451009132 0 0 0
1947 1 2.354977760637776 0.019436812648273682 7.330151211876503 0 0 0
1949 1 5.155592824107254 -0.004157793013844113 7.474320850421643 0 0 0
1948 1 3.7913748984724016 1.63504078138774 8.893914778415065 0 0 0
1951 1 8.529510950329021 0.1245833948663434 7.63242824124014 0 0 0
1950 1 6.756847391733793 1.5445988574304952 8.849968205767315 0 0 0
1304 1 9.858349747615941 1.6753894123775175 6.101173104278255 0 0 0
1306 1 12.86787780091687 1.6030723023714053 6.030068745951698 0 0 0
1953 1 11.275414024562064 0.22258824514754438 7.460755612862243 0 0 0
1952 1 10.006594643779644 1.6554664187792305 9.019865291097787 0 0 0
1954 1 12.79891638740504 1.5016159959863797 8.936329083094305 0 0 0
1955 1 14.30982484275086 0.2544127950837013 7.45129489059482 0 0 0
1956 1 15.96091167886857 1.5492680220546164 8.869474107711303 0 0 0
1957 1 17.158166922432738 0.015837523355612615 7.454267769841377 0 0 0
1958 1 18.692373394336858 1.773798731202151 8.90368649725305 0 0 0
1959 1 20.133442461323963 0.04505771773879541 7.4760529915372285 0 0 0
1960 1 21.76633830132409 1.6002814641949104 9.045625067014496 0 0 0
1961 1 23.052137745064254 0.05264217011118433 7.538965592108246 0 0 0
1962 1 24.645979244737305 1.6478720512611216 8.844629178205631 0 0 0
1983 1 2.5125636139954617 3.139025090312137 7.2471868090444325 0 0 0
1982 1 0.9727532349759955 4.540825540221312 8.721426378052408 0 0 0
2019 1 2.5280386095336116 5.976266740047399 7.287463427559666 0 0 0
1985 1 5.241927041776227 3.059954459457011 7.361217788335433 0 0 0
1984 1 3.619568162918717 4.577168108772252 9.0166909375781 0 0 0
2021 1 5.234985538375338 5.91516247809526 7.477800539015341 0 0 0
1987 1 8.376916852445435 3.2959373089762796 7.42243873149256 0 0 0
1986 1 6.659469533279133 4.170538253612908 9.012838103164464 0 0 0
2023 1 8.2494353270624 5.83661634030549 7.556142825013666 0 0 0
1340 1 9.878659324111394 4.80215769621094 6.039365668267489 0 0 0
1989 1 11.482650373818862 3.0310872005406417 7.50908252317897 0 0 0
1988 1 10.088993646715542 4.583313534025202 8.746841650204352 0 0 0
2025 1 11.504024232315375 6.029457881493379 7.296327029148671 0 0 0
1990 1 12.978915136604218 4.565688758324184 8.858465588112196 0 0 0
1991 1 14.433185804478564 3.1091449751469815 7.530763392212949 0 0 0
1992 1 15.89518046482107 4.721090274896046 8.912479729515427 0 0 0
1346 1 18.65253283882517 4.407035606330343 5.880534878138342 0 0 0
1993 1 17.193033886530483 2.9899612132484163 7.3094913565334805 0 0 0
1994 1 18.65043633144324 4.566111998024554 8.912612038601088 0 0 0
1995 1 20.161203792263464 3.12665641005876 7.407954882036013 0 0 0
1996 1 21.672858637580713 4.666654255990631 8.785848153595614 0 0 0
1350 1 24.711773472494322 4.617273118790629 6.117299087425984 0 0 0
1997 1 23.208891152229302 3.298533529396717 7.366837005292062 0 0 0
1998 1 24.4979542710938 4.5398723612920495 8.890987613223926 0 0 0
2033 1 23.273316857835084 6.275043162391881 7.5492292601359114 0 0 0
1370 1 1.191677346736502 7.490959180346632 6.009828350779177 0 0 0
2017 1 -0.41564454790139777 5.981998405985308 7.435889401018498 0 0 0
2018 1 1.0586223167608875 7.310332882547512 8.739693887342886 0 0 0
2053 1 -0.3747241692525596 9.205486542196727 7.443458697286081 0 0 0
2055 1 2.54884016249259 8.887450968315807 7.546907703623562 0 0 0
1372 1 3.99525714573 7.525773506943667 5.871529959903965 0 0 0
2020 1 3.9992304656947244 7.542064668149598 8.854689488733154 0 0 0
2057 1 5.377640450671624 8.883463486743208 7.345320674633265 0 0 0
2059 1 8.45062471793164 8.878276059403014 7.441378030141074 0 0 0
2022 1 6.885063621295415 7.575334126595084 8.863555581305686 0 0 0
2061 1 11.47607914165275 9.068287768820925 7.342879004506563 0 0 0
2024 1 10.111896754754577 7.473712512522834 8.739516304888403 0 0 0
1378 1 12.915073677460295 7.665253289423463 6.074338223618863 0 0 0
2027 1 14.240455963570726 6.023896046624602 7.5359838773611845 0 0 0
2026 1 12.97636855360027 7.41881590667388 8.985094038095015 0 0 0
2063 1 14.440022758739214 9.023349152369903 7.574420052784454 0 0 0
2028 1 16.003778236933886 7.525974920402922 8.867098241104118 0 0 0
1382 1 18.94952086487682 7.564160516443279 5.763743445742916 0 0 0
2029 1 17.360586159615636 6.209453277000912 7.129690415618302 0 0 0
2065 1 17.44606085099566 8.862164472642577 7.237406829408894 0 0 0
2030 1 18.918036431774222 7.702314136818659 9.189260027769677 0 0 0
2031 1 20.10754312714896 6.077596599249526 7.561554008519039 0 0 0
2067 1 20.052443238563214 8.863864834558928 7.422700086818805 0 0 0
2032 1 21.61830394409408 7.460787967456047 8.844772308660042 0 0 0
1386 1 24.73015445506545 7.622102632496366 5.946989489810232 0 0 0
2069 1 23.242422573466843 9.005720023068013 7.537633527005839 0 0 0
2034 1 24.477688842407876 7.691671087614942 9.15127785158462 0 0 0
1406 1 1.1254268898122444 10.52068338894867 6.028344553629423 0 0 0
2054 1 1.2719831106226944 10.562105864214809 8.779277520151808 0 0 0
2091 1 2.7350512838313707 11.90076929066422 7.378037468407749 0 0 0
2708 1 9.926831773390447 10.301627140360615 11.8751271229589 0 0 0
2093 1 5.578967054750763 11.950053016748978 7.568438660326763 0 0 0
2056 1 4.115916678485995 10.457531161768973 8.840315103435321 0 0 0
1410 1 7.281066418037206 10.45287596895937 6.155411764242106 0 0 0
2095 1 8.502779338496149 11.815970992109648 7.742736885191924 0 0 0
2058 1 6.844139939249112 10.27398058192938 9.143620647029545 0 0 0
2097 1 11.333898440636649 11.842503995827682 7.554342656219173 0 0 0
2060 1 9.84586410503148 10.202862557760875 8.956092772485457 0 0 0
1414 1 13.10432947542269 10.240949253967038 5.9680202369879 0 0 0
2062 1 12.852933169568882 10.452591013919426 8.866924578302454 0 0 0
2099 1 14.557319142140495 11.886923489059354 7.450034636673908 0 0 0
2064 1 16.03036146271315 10.38395063684801 8.726867067450328 0 0 0
2066 1 18.908203290043293 10.68255088335779 8.926756908731168 0 0 0
2101 1 17.370144274225165 11.94703890672547 7.312018799773373 0 0 0
1420 1 21.663727625286835 10.34455404141287 6.271559298523794 0 0 0
2068 1 21.610225446692443 10.461371696685317 8.867818507832224 0 0 0
2103 1 20.13015666827759 11.896525905193407 7.272311821157788 0 0 0
2070 1 24.478494501230916 10.468283292808234 8.973793137203758 0 0 0
2105 1 23.105982832830612 12.011641415225991 7.382035479180095 0 0 0
2594 1 0.8536379914975509 1.6742900944218113 11.838162618205807 0 0 0
2595 1 2.428525517266594 0.1203952379935549 10.76834702459273 0 0 0
2597 1 5.473516147079687 0.19076401304959512 10.497230914597015 0 0 0
2596 1 4.0721891289255 1.3873714252494398 12.24167745421744 0 0 0
2599 1 8.562207557120416 0.033279218730623006 10.213152598936231 0 0 0
2598 1 6.863172617684452 1.6021453781323602 12.193370186784485 0 0 0
2600 1 9.91412987929132 1.712914188680147 11.796652781793666 0 0 0
2601 1 11.292662730263052 0.03564455123017962 10.648612801314032 0 0 0
2602 1 12.793863396710615 1.8181427094582965 11.874479445469749 0 0 0
2603 1 14.373227663227778 0.28648281430787703 10.553583067942974 0 0 0
2604 1 15.65668403414572 1.7145657328693442 12.056207873975499 0 0 0
2605 1 17.188556470278122 0.10879293378080501 10.709544630710448 0 0 0
2606 1 18.796041926589524 1.7169743891716855 11.731308772557732 0 0 0
2607 1 20.169829332144133 0.25643230290300045 10.310766261402112 0 0 0
2608 1 21.34803023827874 1.6762952652249798 11.795596413780569 0 0 0
2714 1 18.833107425098547 10.601124425109449 11.693289172235374 0 0 0
2609 1 23.203014164490376 0.11610683156314527 10.521481633165395 0 0 0
2610 1 24.845406895424624 1.4493161835623392 12.04556957681327 0 0 0
2630 1 0.9783646697541366 4.571132928538622 11.858684012101797 0 0 0
2631 1 2.400662701971682 3.060573848034677 10.499494632586979 0 0 0
2749 1 17.148009321092484 11.738940788870613 10.38483640441992 0 0 0
2667 1 2.4480211001213052 6.130023421990488 10.38250693128298 0 0 0
2633 1 5.209047178257879 2.997926242942661 10.595460933815607 0 0 0
2632 1 4.104209576490939 4.734932601573481 12.040336728812315 0 0 0
2635 1 8.241334731135165 2.878965019204695 10.377201004725784 0 0 0
2634 1 6.821329309419234 4.567333984817413 11.837366754577141 0 0 0
2671 1 8.474679059221273 5.806503062363391 10.325275484980736 0 0 0
2637 1 11.402294281638614 3.207296478203402 10.405568616412923 0 0 0
2636 1 9.890542332667733 4.60436168201707 11.903874213193417 0 0 0
2638 1 13.024085736829374 4.865105257745125 12.027851028140399 0 0 0
2673 1 11.42528864373651 5.7218222710410895 10.399640345389445 0 0 0
2639 1 14.334292672185141 3.104346743890208 10.274586869575252 0 0 0
2640 1 15.858767873245295 4.541858218900682 11.898717276073167 0 0 0
2675 1 14.453361299736505 6.185649736427752 10.495555933172495 0 0 0
2641 1 17.17014529930117 3.1493903074344645 10.508186298582018 0 0 0
2642 1 18.726015802994926 4.546820605161097 11.87002970052442 0 0 0
2643 1 20.15538677496327 3.267253211112593 10.324401175425773 0 0 0
2644 1 21.67632557818994 4.498322825416491 12.001237571206794 0 0 0
2679 1 20.38498276184299 5.887101831310563 10.439633148542852 0 0 0
2645 1 23.23623353747994 2.7001519804882133 10.620739838369502 0 0 0
2646 1 24.587705330849445 4.563512615267943 12.052893520750013 0 0 0
2681 1 23.22790945386392 6.060287095827967 10.505688901579198 0 0 0
2745 1 11.280808185639524 11.666358658977558 10.24831648535316 0 0 0
2666 1 1.0019302867234634 7.376922176640158 11.857717176234559 0 0 0
2703 1 2.424342222719061 8.812567706175376 10.232811598435557 0 0 0
2669 1 5.45114634021931 5.935461297887144 10.387028105486364 0 0 0
2705 1 5.23929874721175 8.960154129919317 10.331288596566763 0 0 0
2668 1 4.108027285909015 7.312626805720442 11.933073869463504 0 0 0
2707 1 8.48770649169062 8.545644590453549 10.410538344568696 0 0 0
2670 1 6.665314681636055 7.5652173261327516 11.688974185487574 0 0 0
2672 1 10.101534836968039 7.520663528470298 11.86369287244783 0 0 0
2709 1 11.302194519841194 8.9174161986046 10.371483356313432 0 0 0
2674 1 12.858302763205923 7.52314691999365 11.861119063271259 0 0 0
2711 1 14.379531846389435 8.907139872024818 10.292289751828516 0 0 0
2676 1 15.851598426271867 7.688882595053304 11.854033166740265 0 0 0
2677 1 17.280929300639556 6.140354803946117 10.531525977800753 0 0 0
2713 1 17.282238830168094 9.109344739910549 10.392954993301842 0 0 0
2678 1 19.024772910356972 7.291047591137965 12.031624721998226 0 0 0
2715 1 20.380554835963924 9.161923200310753 10.608261259315647 0 0 0
2680 1 21.702437933623024 7.588612634056744 11.809960922838949 0 0 0
2682 1 24.54232047648798 7.730365343248531 11.985458151399762 0 0 0
2717 1 22.893489468960006 9.090242072399208 10.45208371108626 0 0 0
2737 1 -0.4036112629830795 11.758706076808357 10.245481338051558 0 0 0
2739 1 2.596644688678408 11.780281519017509 10.399782994945484 0 0 0
2702 1 1.274233864660112 10.397273100404062 11.830802656693292 0 0 0
2704 1 3.877891426842873 10.396205545512911 11.941778751833896 0 0 0
2741 1 5.363368939160446 11.812875274026593 10.446116327269907 0 0 0
2743 1 8.420281505896945 11.849247632644024 10.476562321881447 0 0 0
2706 1 6.7941117434422384 10.363660534350231 11.864461326924857 0 0 0
2629 1 -0.3344193558721284 3.1730761596231907 10.300065883874558 0 0 0
2647 1 25.92643741788157 3.0858139595003973 10.40640789951493 0 0 0
1405 1 -0.19242514887818934 9.000263919824704 4.655372604570277 0 0 0
2701 1 -0.2954736440472341 9.110916270306502 10.418028789801756 0 0 0
2683 1 25.843447731693384 6.1374088944913 10.689771516024624 0 0 0
2665 1 -0.43959720348025 5.9045725343690645 10.177285331516565 0 0 0
3242 1 0.862452337706664 1.6494712429655598 14.859542942843952 0 0 0
3243 1 2.4610414831766394 -0.021665413460706495 13.579086491719384 0 0 0
5869 1 -0.4641652506897018 3.149465021304126 25.159675944789544 0 0 0
3244 1 4.1243382371610915 1.4231472370579397 15.045132124096051 0 0 0
3245 1 5.5598702658681445 -0.043822691740837916 13.467334330642858 0 0 0
3246 1 7.167273778413648 1.6592590128946894 14.964617217229694 0 0 0
3247 1 8.570569804995808 0.24166415779814587 13.328648082319791 0 0 0
3248 1 9.845329059864888 1.7450573779396916 14.884878664195975 0 0 0
3249 1 11.243011255438143 0.29216149462880947 13.315160886741227 0 0 0
3250 1 12.811479661352415 1.5692276783335832 15.025904249881817 0 0 0
3251 1 14.13117175853021 0.1517008905511441 13.257459320759887 0 0 0
3252 1 15.810241111917506 1.535216931799824 14.540399135823305 0 0 0
3253 1 17.397068713621504 0.15059207303894273 13.091842306235117 0 0 0
3254 1 18.568722922425977 1.6423082334206605 14.905631009688845 0 0 0
3256 1 21.535010914631346 1.4345938069035207 14.755581980194561 0 0 0
3255 1 20.006791101457285 0.10953108652005261 13.081197731912646 0 0 0
3257 1 23.2013081097469 0.26204778476995083 13.39216952834758 0 0 0
3258 1 24.42690232764958 1.508702506941408 14.931106862494131 0 0 0
5310 1 24.481076995165843 10.716663644399025 23.420276474724307 0 0 0
3278 1 0.9184549185966919 4.475347901791241 14.99880312696015 0 0 0
3279 1 2.59596946824117 3.0202571535675786 13.64616054309831 0 0 0
5887 1 25.823347727164858 3.0067177842667996 25.4576460986902 0 0 0
3313 1 -0.4320784815641386 6.013138101423097 13.489440872594027 0 0 0
3315 1 2.516415145932163 5.957809774138573 13.331164744760034 0 0 0
3281 1 5.4673270922140595 3.066591756182716 13.635479995114535 0 0 0
3280 1 4.043786183668043 4.738273587993988 14.860981144580766 0 0 0
3317 1 5.773290583132681 6.185531785605927 13.424105654309258 0 0 0
3283 1 8.444345597261368 3.2725645547904385 13.33778498823803 0 0 0
3282 1 6.842259797583932 4.665768621075262 14.87988982154939 0 0 0
3319 1 8.578797730807695 6.2243814563797 13.129703519887624 0 0 0
3285 1 11.38185149379364 3.1256623328660478 13.487546400092548 0 0 0
3284 1 9.801430215507596 4.74275658193456 14.804991323918424 0 0 0
3321 1 11.350190773396877 6.042864249057014 13.308831680768 0 0 0
3286 1 12.862115848861626 4.670118325145222 14.895313574084593 0 0 0
3287 1 14.26557280004047 3.0368416209237017 13.385422610135109 0 0 0
3288 1 15.906540106114015 4.575709568387031 14.956306635623518 0 0 0
3323 1 14.713465112611475 6.143706263636235 13.396873181018284 0 0 0
3289 1 17.26689178311133 3.0970393864959465 13.438373024591083 0 0 0
3290 1 18.635923694783642 4.691142193357238 14.915649129194227 0 0 0
3325 1 17.241229690742827 6.145211446391516 13.260058419982277 0 0 0
3291 1 20.243983723076795 3.3100942975419105 13.409827520065619 0 0 0
3292 1 21.79680777274125 4.438052611108176 14.793980483601123 0 0 0
3327 1 20.322811443805612 5.791821389887493 13.548679707644155 0 0 0
3293 1 23.092596761508698 2.7602183016780883 13.134592643439625 0 0 0
3294 1 24.657119869660473 4.395912844864235 14.847847977759317 0 0 0
5993 1 23.077319841123526 11.941270501181783 25.14884390123459 0 0 0
3314 1 0.8645148298083016 7.508809793407041 14.96815960551742 0 0 0
3349 1 -0.40299261637724193 9.105753996467861 13.50003924561702 0 0 0
3351 1 2.5857831853848285 9.079476560690372 13.429018671049693 0 0 0
3316 1 4.07429776427988 7.32880820439314 14.896611868431497 0 0 0
3353 1 5.482415844110753 8.85552805895208 13.502701379380698 0 0 0
3318 1 7.290347552945364 7.424037695316833 14.918770642021748 0 0 0
3355 1 8.406895941661471 8.729620427201308 13.189302419155757 0 0 0
3320 1 9.802601951371559 7.332328738446692 14.924159643174448 0 0 0
3357 1 11.457078063663538 8.878408395571292 13.534824161350318 0 0 0
3322 1 12.902105497167883 7.21088138832292 14.773500960752205 0 0 0
3359 1 14.202058359843637 8.754185539743963 13.445720866962011 0 0 0
3324 1 16.01598314888563 7.758162495003541 14.953747953050238 0 0 0
3326 1 18.762084340715933 7.524309232458101 14.7550161205307 0 0 0
3361 1 17.32475126951644 9.142901946737844 13.14069399695916 0 0 0
3328 1 21.71076419399991 7.424132895326997 14.83633089349258 0 0 0
3363 1 20.071060751721824 9.206366164821763 13.352488086487213 0 0 0
3329 1 23.24544710048622 6.0159253707364675 13.478870170531161 0 0 0
3330 1 24.82723929524487 7.5118163765436154 14.891315490071362 0 0 0
3365 1 23.08848005989667 8.91885309261999 13.56768473769114 0 0 0
5987 1 14.529894003480978 11.6926738487369 25.26407953766146 0 0 0
3350 1 1.0856580890861098 10.503816563375459 15.090729961347927 0 0 0
3387 1 2.3846375261902337 11.710776148431922 13.530244716982189 0 0 0
5308 1 21.525068422849444 10.588595979839262 23.480823478677156 0 0 0
3352 1 4.11695367898828 10.266929917740566 14.88395190543463 0 0 0
3389 1 5.40825350292358 11.814863185032353 13.47658563952031 0 0 0
3354 1 6.954264723146823 10.420919401452739 14.649398002481792 0 0 0
3391 1 8.566538789170348 11.896939142590877 13.300566345853305 0 0 0
3356 1 9.70297059213103 10.02195326781078 14.695012224815697 0 0 0
3393 1 11.426876738687994 11.663221060351608 13.330013883460904 0 0 0
3358 1 12.942122471564055 10.295456186458212 14.871774195052096 0 0 0
3395 1 14.245078098247703 12.04939485502435 13.474199974981406 0 0 0
3360 1 15.798537910124402 10.337610630344553 14.76384433490691 0 0 0
3362 1 18.435389585214462 10.523085768735829 14.82828668549287 0 0 0