LAMMPS (2 Aug 2023)
OMP_NUM_THREADS environment is not set. Defaulting to 1 thread. (src/comm.cpp:98)
  using 1 OpenMP thread(s) per MPI task
#--------------------------- Simulation variables -----------------------------#
# Initalizes the random number generator.
variable RND equal round(random(0,999,${RANDOM}))
variable RND equal round(random(0,999,1))

# Simulation control parameters.
variable         t_eq equal 20000 # Equilibration time.
variable         t equal 100000 # Switching time.
variable         T_0 equal 100 # Simulation temperature.
variable         T_n equal 1600 # Target temperature.
variable         P equal 0 # Simulation pressure.

#---------------------------- Atomic setup ------------------------------------#
units            metal
# Create atoms.
lattice          bcc 2.8841
Lattice spacing in x,y,z = 2.8841 2.8841 2.8841
region           sim_box block 0 18 0 18 0 18
create_box       1 sim_box
Created orthogonal box = (0 0 0) to (51.9138 51.9138 51.9138)
  4 by 4 by 4 MPI processor grid
create_atoms     1 box
Created 11664 atoms
  using lattice units in orthogonal box = (0 0 0) to (51.9138 51.9138 51.9138)
  create_atoms CPU = 0.001 seconds

# Define Interatomic potential.
pair_style       eam
pair_coeff       * * ../Fe.eam
#----------------------------- Run simulation ---------------------------------#
# Initial temperature to accelerate equilibration.
velocity all create ${T_0} ${RND} mom yes rot yes dist gaussian
velocity all create 100 ${RND} mom yes rot yes dist gaussian
velocity all create 100 80 mom yes rot yes dist gaussian

# Setup thermo output.
variable lambda equal 1
thermo_style custom step pe ke etotal temp lx ly lz vol press pxx pyy pzz v_lambda
thermo 100
thermo_modify line yaml
thermo_modify flush yes

# Integrator, barostat, and thermostat.
fix fph all nph iso ${P} ${P} 1.0
fix fph all nph iso 0 ${P} 1.0
fix fph all nph iso 0 0 1.0
fix ft all langevin ${T_0} ${T_0} 0.1 ${RND}
fix ft all langevin 100 ${T_0} 0.1 ${RND}
fix ft all langevin 100 100 0.1 ${RND}
fix ft all langevin 100 100 0.1 178
# Forward integration.
run ${t_eq}
run 20000
Neighbor list info ...
  update: every = 1 steps, delay = 0 steps, check = yes
  max neighbors/atom: 2000, page size: 100000
  master list distance cutoff = 6.409104
  ghost atom cutoff = 6.409104
  binsize = 3.204552, bins = 17 17 17
  1 neighbor lists, perpetual/occasional/extra = 1 0 0
  (1) pair eam, perpetual
      attributes: half, newton on
      pair build: half/bin/atomonly/newton
      stencil: half/bin/3d
      bin: standard
Per MPI rank memory allocation (min/avg/max) = 3.361 | 3.361 | 3.361 Mbytes
---
keywords: ['Step', 'PotEng', 'KinEng', 'TotEng', 'Temp', 'Lx', 'Ly', 'Lz', 'Volume', 'Press', 'Pxx', 'Pyy', 'Pzz', 'v_lambda', ]
data:
  - [0, -50033.0033849986, 150.7561071135, -49882.2472778851, 100, 51.9138, 51.9138, 51.9138, 139909.904108136, -24692.8445720645, -24680.3937726656, -24700.7701849459, -24697.369758582, 1, ]
  - [100, -49929.5086894351, 122.097922633874, -49807.4107668012, 80.9903658111509, 51.8719402626183, 51.8719402626183, 51.8719402626183, 139571.735600499, 200.147215461866, 86.8499700838661, 341.944927585459, 171.646748716273, 1, ]
  - [200, -49914.0451486359, 139.230458886177, -49774.8146897497, 92.3547719240017, 51.8806269133445, 51.8806269133445, 51.8806269133445, 139641.866809668, 1987.28620060082, 2012.19734737165, 1936.17795024723, 2013.4833041836, 1, ]
  - [300, -49906.6265303482, 147.768100367705, -49758.8584299805, 98.0179862673521, 51.8999158869548, 51.8999158869548, 51.8999158869548, 139797.679297883, 1035.50347072211, 1016.21859824557, 1047.81542680556, 1042.4763871152, 1, ]
  - [400, -49904.4210332479, 150.678882882707, -49753.7421503652, 99.9487753880941, 51.9125237820601, 51.9125237820601, 51.9125237820601, 139899.585976534, -79.5860058343606, -104.258137007511, 9.58148589810606, -144.081366393678, 1, ]
  - [500, -49904.1922843826, 149.609316931868, -49754.5829674507, 99.2393076449174, 51.9125880346646, 51.9125880346646, 51.9125880346646, 139900.10544216, -82.1816611980561, 13.5415310572691, -149.981377877823, -110.105136773616, 1, ]
  - [600, -49901.5360763546, 151.126700441906, -49750.4093759127, 100.245823094999, 51.9173362866328, 51.9173362866328, 51.9173362866328, 139938.497385463, -250.432520305671, -241.152949372873, -226.904541969305, -283.240069574834, 1, ]
  - [700, -49901.8855947216, 150.054194226824, -49751.8314004948, 99.5344050067921, 51.9150610100918, 51.9150610100918, 51.9150610100918, 139920.099783655, 91.9499293721763, 132.6527690319, 51.0660512620806, 92.130967822548, 1, ]
  - [800, -49900.9012783299, 149.11136439618, -49751.7899139337, 98.9090042527551, 51.917988377125, 51.917988377125, 51.917988377125, 139943.770405016, -186.218901247524, -139.46460052121, -242.981457062565, -176.210646158797, 1, ]
  - [900, -49901.0635849541, 149.697509832422, -49751.3660751217, 99.2978080282473, 51.9167221568139, 51.9167221568139, 51.9167221568139, 139933.531449596, -26.2519283767636, -17.9781454716943, -51.5574593719578, -9.22018028663867, 1, ]
  - [1000, -49903.1335579203, 152.501979941618, -49750.6315779786, 101.158077680265, 51.9144754028077, 51.9144754028077, 51.9144754028077, 139915.364897259, -83.8427916806764, -107.802139110742, -118.51596710101, -25.210268830278, 1, ]
  - [1100, -49902.773277271, 152.598958259964, -49750.174319011, 101.222405633674, 51.9091646501574, 51.9091646501574, 51.9091646501574, 139872.43005807, 672.799049775393, 684.434738628074, 688.146756425794, 645.815654272312, 1, ]
  - [1200, -49901.7749324748, 148.830993127945, -49752.9439393469, 98.7230275294217, 51.9117773068626, 51.9117773068626, 51.9117773068626, 139893.55101261, 398.810727703069, 374.917735429649, 422.595567892655, 398.918879786902, 1, ]
  - [1300, -49901.0064122408, 151.506822555853, -49749.499589685, 100.497966853037, 51.9175563300635, 51.9175563300635, 51.9175563300635, 139940.276714668, -73.0619856418991, -83.918210025833, -115.304843768261, -19.9629031316032, 1, ]
  - [1400, -49904.4994346248, 149.858873761291, -49754.6405608635, 99.404844440873, 51.9123491316733, 51.9123491316733, 51.9123491316733, 139898.173979996, -156.212557002985, -175.732880202128, -143.930202648912, -148.974588157916, 1, ]
  - [1500, -49903.7667954134, 149.338874567735, -49754.4279208456, 99.0599169924853, 51.911864172096, 51.911864172096, 51.911864172096, 139894.253275579, 46.7186903990162, 56.1566761676057, 46.2299257169255, 37.7694693125163, 1, ]
  - [1600, -49904.1604005882, 150.158625884689, -49754.0017747035, 99.6036769320656, 51.9142828356603, 51.9142828356603, 51.9142828356603, 139913.807932509, -201.297278682016, -206.000337631824, -273.652737547405, -124.238760866819, 1, ]
  - [1700, -49904.1729769604, 150.325612232247, -49753.8473647281, 99.7144428245758, 51.9134581862132, 51.9134581862132, 51.9134581862132, 139907.140518151, -155.025745085872, -231.544268522738, -122.811629336687, -110.721337398192, 1, ]
  - [1800, -49904.3234599789, 151.106443547816, -49753.2170164311, 100.232386230332, 51.9143567139578, 51.9143567139578, 51.9143567139578, 139914.405259953, -289.165538358788, -237.145987283217, -333.25032250214, -297.100305291008, 1, ]
  - [1900, -49904.112402607, 151.440830887211, -49752.6715717198, 100.454193058458, 51.9115518205867, 51.9115518205867, 51.9115518205867, 139891.728077211, 53.6640847260175, -35.5189025790714, 94.7124703307262, 101.798686426398, 1, ]
  - [2000, -49903.6133617433, 150.419183837655, -49753.1941779056, 99.7765110267861, 51.9107991955616, 51.9107991955616, 51.9107991955616, 139885.643622872, 226.865717261603, 215.719648662499, 191.68923734814, 273.188265774169, 1, ]
  - [2100, -49905.3074015861, 152.444618203756, -49752.8627833824, 101.120028317649, 51.911308880806, 51.911308880806, 51.911308880806, 139889.764057325, -149.957178590183, -141.080277193058, -189.99495854973, -118.796300027762, 1, ]
  - [2200, -49903.9163173758, 150.376621102395, -49753.5396962734, 99.7482781836368, 51.9144169638492, 51.9144169638492, 51.9144169638492, 139914.892399044, -237.090610446806, -277.751626510912, -193.952399848431, -239.567804981077, 1, ]
  - [2300, -49903.1489616856, 150.507727606551, -49752.641234079, 99.8352441491728, 51.9138201490584, 51.9138201490584, 51.9138201490584, 139910.067015913, -28.6652011574228, 33.9806449618212, -51.3068061657682, -68.6694422683213, 1, ]
  - [2400, -49904.6347321052, 149.132579277106, -49755.502152828, 98.9230765721671, 51.9160413701158, 51.9160413701158, 51.9160413701158, 139928.02665459, -574.920947198993, -713.725736451966, -514.354455416449, -496.682649728565, 1, ]
  - [2500, -49902.8438048918, 150.415116674721, -49752.428688217, 99.7738131838848, 51.9164945211043, 51.9164945211043, 51.9164945211043, 139931.690786641, -298.848396602833, -376.836924703598, -289.578367480273, -230.129897624626, 1, ]
  - [2600, -49904.07680779, 152.329906063222, -49751.7469017268, 101.043937111308, 51.9121844475601, 51.9121844475601, 51.9121844475601, 139896.842566527, 26.4862182223851, -21.4793909999892, -10.9695892843418, 111.907634951486, 1, ]
  - [2700, -49903.4501522705, 150.951775575478, -49752.498376695, 100.12979139998, 51.907478590127, 51.907478590127, 51.907478590127, 139858.800924068, 596.836726026069, 638.906483386435, 550.32408832587, 601.279606365903, 1, ]
  - [2800, -49903.5257262761, 149.840035151042, -49753.685691125, 99.392348356562, 51.9117552178155, 51.9117552178155, 51.9117552178155, 139893.372433832, 27.8916881356714, 83.244621530984, -8.89463581126155, 9.3250786872914, 1, ]
  - [2900, -49904.2627149541, 150.197794525146, -49754.064920429, 99.6296583939161, 51.9124678550009, 51.9124678550009, 51.9124678550009, 139899.133821826, -116.451227843223, -146.102766013219, -71.5082138423409, -131.742703674109, 1, ]
  - [3000, -49902.3927181323, 148.828281853349, -49753.564436279, 98.721229078501, 51.916391488355, 51.916391488355, 51.916391488355, 139930.857668862, -295.601274011534, -293.159535966567, -283.406262993905, -310.238023074128, 1, ]
  - [3100, -49902.8869558259, 149.708316856714, -49753.1786389692, 99.3049765765067, 51.9173076451842, 51.9173076451842, 51.9173076451842, 139938.265784267, -460.105230925339, -472.514211943968, -477.280741995207, -430.520738836843, 1, ]
  - [3200, -49904.1925482324, 152.546144085616, -49751.6464041468, 101.187372774735, 51.9153123011003, 51.9153123011003, 51.9153123011003, 139922.131612135, -379.890395217199, -404.929447154896, -287.346338993018, -447.395399503681, 1, ]
  - [3300, -49903.6062669588, 150.610148746506, -49752.9961182122, 99.9031824515845, 51.9118896777706, 51.9118896777706, 51.9118896777706, 139894.459476942, 44.6378654713161, 56.3672050645354, 31.2879828704862, 46.2584084789278, 1, ]
  - [3400, -49902.2469783724, 152.513918240574, -49749.7330601318, 101.165996629079, 51.9118216799258, 51.9118216799258, 51.9118216799258, 139893.909746852, 435.293515211452, 472.677026344173, 449.640161287571, 383.563358002611, 1, ]
  - [3500, -49902.4364548023, 153.203258500322, -49749.233196302, 101.623251909112, 51.9159917507359, 51.9159917507359, 51.9159917507359, 139927.625441299, -119.032943246555, -182.20572753255, -110.971111630516, -63.921990576599, 1, ]
  - [3600, -49903.6471750174, 151.488307410855, -49752.1588676065, 100.48568533068, 51.9157863632342, 51.9157863632342, 51.9157863632342, 139925.96472343, -322.892051063178, -333.512322740261, -322.173980146928, -312.989850302343, 1, ]
  - [3700, -49902.8001149815, 150.554484210493, -49752.245630771, 99.8662588820661, 51.9128095082535, 51.9128095082535, 51.9128095082535, 139901.896008483, 157.791522763284, 118.925228538144, 137.440435973752, 217.008903777957, 1, ]
  - [3800, -49903.1277363009, 149.494655184414, -49753.6330811165, 99.1632498654687, 51.9122946793529, 51.9122946793529, 51.9122946793529, 139897.733751092, 79.5704698275217, 84.6844935945728, 41.112122886015, 112.914793001977, 1, ]
  - [3900, -49902.5638035455, 149.907733763193, -49752.6560697823, 99.4372544061063, 51.913434679759, 51.913434679759, 51.913434679759, 139906.950468051, 34.1864575018143, 17.425985057475, -13.9987105492081, 99.1320979971765, 1, ]
  - [4000, -49902.6890411443, 152.350814016438, -49750.3382271278, 101.057805838497, 51.913879169221, 51.913879169221, 51.913879169221, 139910.544202389, -27.1011340233897, -72.5394779237816, -46.4343878868237, 37.6704637404367, 1, ]
  - [4100, -49903.6514812654, 150.923718047395, -49752.727763218, 100.111180195021, 51.9136978512368, 51.9136978512368, 51.9136978512368, 139909.078223947, -150.366180751728, -220.679324928886, -90.4412724535682, -139.97794487273, 1, ]
  - [4200, -49901.9096706965, 149.887618077095, -49752.0220526194, 99.4239112079544, 51.9138657857564, 51.9138657857564, 51.9138657857564, 139910.435995064, 161.37340748459, 132.899825402411, 152.634994341197, 198.585402710162, 1, ]
  - [4300, -49903.2881101932, 150.946354420591, -49752.3417557726, 100.126195423014, 51.9116168275353, 51.9116168275353, 51.9116168275353, 139892.253621841, 201.415423010561, 186.044787928646, 176.733224172156, 241.468256930882, 1, ]
  - [4400, -49903.8027084275, 150.471526085947, -49753.3311823416, 99.8112308462976, 51.917182380733, 51.917182380733, 51.917182380733, 139937.252870737, -496.944348331359, -433.713537672744, -510.007585511226, -547.111921810107, 1, ]
  - [4500, -49903.0295962113, 149.774928109025, -49753.2546681022, 99.3491613552101, 51.9175932871906, 51.9175932871906, 51.9175932871906, 139940.575561222, -484.267706694248, -405.213785521755, -451.367958453162, -596.221376107826, 1, ]
  - [4600, -49903.4222517039, 150.861793433358, -49752.5604582705, 100.070104171487, 51.9189483793444, 51.9189483793444, 51.9189483793444, 139951.533541757, -776.55606822361, -764.541428832367, -796.325114805152, -768.801661033312, 1, ]
  - [4700, -49902.6050531256, 148.666209489373, -49753.9388436362, 98.6137227445428, 51.9178988253114, 51.9178988253114, 51.9178988253114, 139943.046251565, -436.256860855389, -425.170805158915, -451.708263293871, -431.89151411338, 1, ]
  - [4800, -49901.7210209424, 151.713741269427, -49750.007279673, 100.63522080416, 51.9200669710809, 51.9200669710809, 51.9200669710809, 139960.579487795, -560.728479308597, -505.50411517799, -580.432080251026, -596.249242496775, 1, ]
  - [4900, -49903.2768510344, 152.12997604281, -49751.1468749916, 100.911318921413, 51.9157010200754, 51.9157010200754, 51.9157010200754, 139925.274661407, -389.629480071035, -424.862551884098, -337.88363808702, -406.142250241988, 1, ]
  - [5000, -49902.9569736544, 152.050779135972, -49750.9061945185, 100.858785788026, 51.9086694568909, 51.9086694568909, 51.9086694568909, 139868.427110311, 614.097395740534, 648.243652883016, 646.807562598769, 547.240971739816, 1, ]
  - [5100, -49902.2114757179, 150.373617297589, -49751.8378584203, 99.7462856906867, 51.9088439766686, 51.9088439766686, 51.9088439766686, 139869.837850894, 723.17319712235, 708.010852766827, 763.333785621554, 698.174952978666, 1, ]
  - [5200, -49903.1216683995, 152.972950201913, -49750.1487181976, 101.470483107357, 51.913880470535, 51.913880470535, 51.913880470535, 139910.554723712, -36.351606033301, -7.56578713717215, -90.5668859258902, -10.9221450368407, 1, ]
  - [5300, -49903.2265233618, 151.00246375695, -49752.2240596048, 100.163414038852, 51.9173659484188, 51.9173659484188, 51.9173659484188, 139938.737237607, -540.60247155314, -591.6091799362, -510.083454912828, -520.114779810393, 1, ]
  - [5400, -49903.3370257365, 150.038276782217, -49753.2987489543, 99.5238465989691, 51.9159346886485, 51.9159346886485, 51.9159346886485, 139927.164048574, -232.453050455753, -269.832344257705, -199.030575233588, -228.496231875966, 1, ]
  - [5500, -49902.4093654226, 149.586475977292, -49752.8228894453, 99.2241567133811, 51.9185662204119, 51.9185662204119, 51.9185662204119, 139948.443147788, -494.580844469389, -532.107316447081, -534.724244809092, -416.910972151994, 1, ]
  - [5600, -49902.9842083902, 151.391284380692, -49751.5929240095, 100.421327718892, 51.9112895841439, 51.9112895841439, 51.9112895841439, 139889.608056375, 312.419289504705, 340.57447529424, 415.463316033316, 181.220077186557, 1, ]
  - [5700, -49905.5119667844, 150.488017706912, -49755.0239490775, 99.8221701185306, 51.9030854106543, 51.9030854106543, 51.9030854106543, 139823.293161233, 879.455090751084, 942.256181839607, 887.521470398618, 808.587620015027, 1, ]
  - [5800, -49904.6741063885, 150.978216440656, -49753.6958899478, 100.147330235178, 51.9050822173338, 51.9050822173338, 51.9050822173338, 139839.431555994, 839.731865213595, 781.367348607216, 936.624075849195, 801.204171184375, 1, ]
  - [5900, -49903.0906544222, 150.524619309198, -49752.566035113, 99.8464488048051, 51.9096970239147, 51.9096970239147, 51.9096970239147, 139876.733643498, 466.124051257505, 440.732606545221, 400.282654714088, 557.356892513207, 1, ]
  - [6000, -49902.4621154216, 151.262460641773, -49751.1996547799, 100.335875964144, 51.9113476107403, 51.9113476107403, 51.9113476107403, 139890.077163979, 422.036068793937, 414.57236731179, 352.272421033718, 499.263418036305, 1, ]
  - [6100, -49900.9295955959, 151.763572066575, -49749.1660235293, 100.668274720252, 51.9147619851337, 51.9147619851337, 51.9147619851337, 139917.682025098, 259.506058534717, 289.201641712165, 196.614958066636, 292.701575825349, 1, ]
  - [6200, -49903.0333679225, 148.559626122912, -49754.4737417996, 98.5430235413716, 51.9164044314699, 51.9164044314699, 51.9164044314699, 139930.962326076, -369.293897888946, -324.727033070461, -371.887679663765, -411.266980932612, 1, ]
  - [6300, -49904.5666149688, 150.745613724055, -49753.8210012448, 99.9930394929628, 51.9159137677639, 51.9159137677639, 51.9159137677639, 139926.994886704, -465.729289318106, -463.476897076579, -459.707321546582, -474.003649331157, 1, ]
  - [6400, -49903.9982890989, 149.526827926777, -49754.4714611722, 99.184590786894, 51.9162652136852, 51.9162652136852, 51.9162652136852, 139929.836622559, -515.617770716727, -505.572582070289, -486.312828099673, -554.967901980218, 1, ]
  - [6500, -49901.2777800974, 151.570935483445, -49749.706844614, 100.540494435381, 51.9161998561031, 51.9161998561031, 51.9161998561031, 139929.308148627, -16.1411686058498, -64.890402702935, 57.7131472966847, -41.2462504112988, 1, ]
  - [6600, -49900.4292661917, 151.413495554086, -49749.0157706376, 100.436060902057, 51.9161863702203, 51.9161863702203, 51.9161863702203, 139929.199103487, 58.8709436598349, 66.1578514331714, 47.5980077557723, 62.8569717905607, 1, ]
  - [6700, -49902.1562342169, 151.62115117757, -49750.5350830393, 100.573803662507, 51.9175850168213, 51.9175850168213, 51.9175850168213, 139940.508684468, -394.806230249038, -330.653621117585, -426.303538889696, -427.461530739834, 1, ]
  - [6800, -49902.0800980088, 150.492413110858, -49751.587684898, 99.8250856912591, 51.9203242074248, 51.9203242074248, 51.9203242074248, 139962.659789009, -761.015170306668, -839.010058100863, -695.64497219026, -748.390480628879, 1, ]
  - [6900, -49901.911348718, 152.464638278104, -49749.4467104399, 101.133308094323, 51.9197478027214, 51.9197478027214, 51.9197478027214, 139957.998363584, -579.088979067588, -582.512667842119, -557.371260690667, -597.383008669978, 1, ]
  - [7000, -49901.6356226321, 151.448152271601, -49750.1874703605, 100.459049501444, 51.9160343141115, 51.9160343141115, 51.9160343141115, 139927.969600974, 94.579132927097, 74.465965474163, 46.967871516383, 162.303561790746, 1, ]
  - [7100, -49902.9774666698, 152.290047127914, -49750.6874195419, 101.017497760976, 51.916074896393, 51.916074896393, 51.916074896393, 139928.29774241, -185.973027351896, -142.638734033795, -243.431509146544, -171.848838875348, 1, ]
  - [7200, -49902.6705569576, 150.111058938337, -49752.5594980192, 99.5721246803772, 51.9149872442852, 51.9149872442852, 51.9149872442852, 139919.503349547, -164.052882843886, -214.13215166018, -181.686623284229, -96.3398735872491, 1, ]
  - [7300, -49902.2893580016, 150.522395340191, -49751.7669626614, 99.8449735949117, 51.9146657038543, 51.9146657038543, 51.9146657038543, 139916.903551234, -76.2993949507567, -54.9595617458026, -98.7088035300941, -75.229819576374, 1, ]
  - [7400, -49902.4289526398, 151.040748436021, -49751.3882042038, 100.188809148744, 51.9169570990747, 51.9169570990747, 51.9169570990747, 139935.431210269, -249.208163666232, -290.727519869742, -205.523398365912, -251.373572763042, 1, ]
  - [7500, -49902.9815162185, 150.52830749511, -49752.4532087234, 99.8488952635141, 51.9215352552299, 51.9215352552299, 51.9215352552299, 139972.453955062, -930.188915993055, -953.440361101087, -988.073987949874, -849.052398928204, 1, ]
  - [7600, -49902.9515761733, 149.554210694283, -49753.397365479, 99.2027544076131, 51.9153019866944, 51.9153019866944, 51.9153019866944, 139922.048214002, -84.1710677656423, -72.3644794438593, -67.5858921848829, -112.562831668185, 1, ]
  - [7700, -49903.4395903729, 152.397273307983, -49751.0423170649, 101.088623357226, 51.9113396221087, 51.9113396221087, 51.9113396221087, 139890.012580984, 160.518085988903, 159.954779982709, 151.049867127907, 170.549610856094, 1, ]
  - [7800, -49902.9312999256, 153.934001537652, -49748.997298388, 102.107970605635, 51.9114518798311, 51.9114518798311, 51.9114518798311, 139890.92011496, 333.807870795026, 373.510198329169, 265.824996080906, 362.088417975003, 1, ]
  - [7900, -49904.279756547, 150.721381839198, -49753.5583747078, 99.9769659253168, 51.908443899147, 51.908443899147, 51.908443899147, 139866.603815468, 435.810512864677, 477.254948045169, 401.019057068643, 429.157533480219, 1, ]
  - [8000, -49902.9910142985, 151.059357156708, -49751.9316571418, 100.201152742011, 51.9132430705043, 51.9132430705043, 51.9132430705043, 139905.401310243, 17.8140952009427, 131.788158070609, -55.181578216444, -23.1642942513367, 1, ]
  - [8100, -49902.4404242914, 150.420580457641, -49752.0198438338, 99.7774374370075, 51.9138196488628, 51.9138196488628, 51.9138196488628, 139910.062971765, 59.2623905899859, 36.925009190399, 97.7345363645124, 43.1276262150454, 1, ]
  - [8200, -49903.5419997497, 151.032465696324, -49752.5095340534, 100.183315016629, 51.9117645227792, 51.9117645227792, 51.9117645227792, 139893.44765974, 116.677178120984, 189.67928192889, 109.655734169878, 50.6965182641823, 1, ]
  - [8300, -49903.467015228, 150.21053363774, -49753.2564815903, 99.6381085408703, 51.9097137559983, 51.9097137559983, 51.9097137559983, 139876.868903194, 379.160265025305, 420.824644656088, 350.156280484601, 366.499869935225, 1, ]
  - [8400, -49902.6931057699, 151.602654602328, -49751.0904511676, 100.561534457898, 51.9165812844805, 51.9165812844805, 51.9165812844805, 139932.392353629, -359.516886730443, -341.929081263847, -362.06718319021, -374.554395737271, 1, ]
  - [8500, -49901.3467911045, 150.900248515982, -49750.4465425885, 100.095612313983, 51.9215601579148, 51.9215601579148, 51.9215601579148, 139972.655356556, -705.504958157545, -631.858758067533, -782.832174611689, -701.823941793414, 1, ]
  - [8600, -49902.5294562441, 149.180487110789, -49753.3489691333, 98.9548549422779, 51.9135822671966, 51.9135822671966, 51.9135822671966, 139908.143717958, 138.651213047799, 144.822579685225, 147.176012452508, 123.955047005665, 1, ]
  - [8700, -49901.5958247163, 150.422410259806, -49751.1734144565, 99.7786511869514, 51.9145728401291, 51.9145728401291, 51.9145728401291, 139916.152712441, 109.01888123976, 123.380437012551, 106.967754301025, 96.7084524057053, 1, ]
  - [8800, -49901.3456279275, 150.711846862735, -49750.6337810648, 99.970641155697, 51.9173809268297, 51.9173809268297, 51.9173809268297, 139938.858356647, -119.216204379973, -72.2506128518246, -120.157903915721, -165.240096372374, 1, ]
  - [8900, -49902.058957364, 151.777768436626, -49750.2811889274, 100.67769149966, 51.9217020163742, 51.9217020163742, 51.9217020163742, 139973.802646397, -907.359717617332, -963.798506928265, -865.340598442667, -892.940047481062, 1, ]
  - [9000, -49901.5767911447, 151.573321484609, -49750.00346966, 100.542077124938, 51.9167952761314, 51.9167952761314, 51.9167952761314, 139934.122696017, -113.171754464304, -96.159135576728, -75.2467644859209, -168.109363330264, 1, ]
  - [9100, -49903.9005501184, 151.382627329668, -49752.5179227887, 100.415585297448, 51.9132630124529, 51.9132630124529, 51.9132630124529, 139905.56254005, -92.0326792647169, 4.41438122120481, -132.014624448367, -148.497794566988, 1, ]
  - [9200, -49901.6155597802, 149.757463356072, -49751.8580964241, 99.3375765821044, 51.9117650085288, 51.9117650085288, 51.9117650085288, 139893.45158678, 358.740178264471, 445.033430831804, 285.83186350914, 345.355240452468, 1, ]
  - [9300, -49902.9775945899, 152.289636122151, -49750.6879584678, 101.017225131381, 51.9120760076489, 51.9120760076489, 51.9120760076489, 139895.965872376, 143.768936899108, 160.520650492907, 140.656200258335, 130.129959946083, 1, ]
  - [9400, -49903.0568023261, 150.397417281767, -49752.6593850443, 99.7620727686584, 51.91200060957, 51.91200060957, 51.91200060957, 139895.356310638, 133.582139901147, 119.203245106097, 148.031277923848, 133.511896673495, 1, ]
  - [9500, -49902.6440509429, 150.935031361633, -49751.7090195813, 100.118684577069, 51.9154470091075, 51.9154470091075, 51.9154470091075, 139923.220809883, -215.369112663591, -163.013364616949, -280.097917928302, -202.99605544552, 1, ]
  - [9600, -49904.0698445361, 152.531809144348, -49751.5380353918, 101.177864077846, 51.9188026009258, 51.9188026009258, 51.9188026009258, 139950.354674123, -831.83098570346, -820.607626410252, -787.107918209626, -887.777412490502, 1, ]
  - [9700, -49902.4899223042, 149.124132333531, -49753.3657899707, 98.9174735198356, 51.9152058596366, 51.9152058596366, 51.9152058596366, 139921.270970912, -125.861751677815, -156.605527628004, -143.300488131094, -77.6792392743461, 1, ]
  - [9800, -49902.5004156162, 149.162409471761, -49753.3380061444, 98.9428636277139, 51.9102358866135, 51.9102358866135, 51.9102358866135, 139881.08977391, 502.974931018077, 428.788884854917, 592.765368393987, 487.370539805328, 1, ]
  - [9900, -49902.680747162, 152.694172797482, -49749.9865743645, 101.285563630615, 51.9159026310435, 51.9159026310435, 51.9159026310435, 139926.904837582, -244.16111024724, -230.953627538554, -248.14884205334, -253.380861149825, 1, ]
  - [10000, -49901.254786302, 150.557599410581, -49750.6971868914, 99.8683252660738, 51.9136946204269, 51.9136946204269, 51.9136946204269, 139909.05210254, 217.993031014883, 189.721866665428, 218.805891219519, 245.451335159702, 1, ]
  - [10100, -49901.9807691492, 150.322538174431, -49751.6582309747, 99.7124037311848, 51.9107535679262, 51.9107535679262, 51.9107535679262, 139885.274760575, 490.732368575466, 501.119362949173, 491.48652705194, 479.591215725285, 1, ]
  - [10200, -49902.6013019829, 150.534840890699, -49752.0664610922, 99.8532290153697, 51.9176209132869, 51.9176209132869, 51.9176209132869, 139940.798954505, -397.949779324129, -407.34494718175, -408.541015586967, -377.963375203669, 1, ]
  - [10300, -49903.9671665716, 152.199621351966, -49751.7675452196, 100.957516259941, 51.9149984344673, 51.9149984344673, 51.9149984344673, 139919.593827758, -321.313787973278, -344.730821560427, -270.925469700956, -348.285072658449, 1, ]
  - [10400, -49902.2631958317, 151.680305225364, -49750.5828906063, 100.613041905605, 51.9119622869071, 51.9119622869071, 51.9119622869071, 139895.046488714, 248.057107968139, 211.066720457167, 292.901903039083, 240.202700408167, 1, ]
  - [10500, -49902.2156203977, 152.671670453861, -49749.5439499438, 101.270637307528, 51.9078528217224, 51.9078528217224, 51.9078528217224, 139861.825919366, 862.114054663587, 826.989941462077, 863.860454802767, 895.491767725916, 1, ]
  - [10600, -49903.1840318339, 149.755279358515, -49753.4287524753, 99.3361278861948, 51.910615038681, 51.910615038681, 51.910615038681, 139884.154868348, 297.930457881622, 249.659309250774, 286.64565188769, 357.486412506403, 1, ]
  - [10700, -49904.6457391151, 150.902028316769, -49753.7437107984, 100.09679289686, 51.9101945297271, 51.9101945297271, 51.9101945297271, 139880.755444371, 237.129064896125, 202.583162090704, 196.496604915171, 312.3074276825, 1, ]
  - [10800, -49902.5263879108, 150.385494841194, -49752.1408930696, 99.7541643390761, 51.9067495752826, 51.9067495752826, 51.9067495752826, 139852.908263927, 962.760896208725, 954.663115687488, 959.758561292122, 973.861011646565, 1, ]
  - [10900, -49904.6930582269, 149.321124383335, -49755.3719338435, 99.0481428861221, 51.9069626049736, 51.9069626049736, 51.9069626049736, 139854.63017549, 485.06146449266, 527.698076162106, 515.115017201315, 412.371300114559, 1, ]
  - [11000, -49903.2534273906, 148.214314140528, -49755.03911325, 98.3139701457942, 51.9121780734655, 51.9121780734655, 51.9121780734655, 139896.79103437, 58.0659234635901, 24.4657646264914, 32.0318414693642, 117.700164294915, 1, ]
  - [11100, -49904.0552967786, 148.522012195414, -49755.5332845832, 98.518073356455, 51.912757125746, 51.912757125746, 51.912757125746, 139901.472505799, -51.5187212088694, -128.076589667673, 57.4650802680859, -83.9446542270206, 1, ]
  - [11200, -49903.6736858399, 149.384740279863, -49754.28894556, 99.090340776308, 51.9169812867938, 51.9169812867938, 51.9169812867938, 139935.626794949, -504.404156208999, -571.600228894431, -419.373706124739, -522.238533607826, 1, ]
  - [11300, -49901.7800813114, 148.004723514623, -49753.7753577968, 98.1749438536472, 51.9237877432724, 51.9237877432724, 51.9237877432724, 139990.671826821, -1037.84183486335, -1023.57214491713, -1063.53829094346, -1026.41506872946, 1, ]
  - [11400, -49900.9138928796, 149.984381745323, -49750.9295111343, 99.4880967789941, 51.9240687759311, 51.9240687759311, 51.9240687759311, 139992.944898491, -902.485905576885, -892.451311508755, -890.231700745186, -924.774704476714, 1, ]
  - [11500, -49902.5916038812, 151.618331625583, -49750.9732722557, 100.571933388698, 51.9183216105479, 51.9183216105479, 51.9183216105479, 139946.46509191, -481.490390619539, -440.208863739933, -490.139783283173, -514.122524835509, 1, ]
  - [11600, -49899.9428169677, 148.808313355527, -49751.1345036121, 98.7079835137251, 51.9125206443524, 51.9125206443524, 51.9125206443524, 139899.560609015, 660.313441692459, 709.39372985823, 650.242004635006, 621.304590584141, 1, ]
  - [11700, -49903.1836713044, 151.634621829214, -49751.5490494752, 100.582739056171, 51.9136543014689, 51.9136543014689, 51.9136543014689, 139908.726120185, -92.8833987140842, -55.4834777657444, -57.7651872258769, -165.401531150632, 1, ]
  - [11800, -49903.707090957, 150.834978689341, -49752.8721122677, 100.052317333839, 51.9133553807862, 51.9133553807862, 51.9133553807862, 139906.309335717, -7.53449279669853, 18.5804732343946, 12.5791496305681, -53.7631012550578, 1, ]
  - [11900, -49902.6378777834, 149.681044523831, -49752.9568332596, 99.2868862096185, 51.9138803273144, 51.9138803273144, 51.9138803273144, 139910.553565751, 99.3954772256604, 56.2210571456827, 118.156695313548, 123.808679217749, 1, ]
  - [12000, -49903.2976442305, 151.631910109155, -49751.6657341213, 100.580940309765, 51.9123887693943, 51.9123887693943, 51.9123887693943, 139898.494438372, 138.003848673777, 108.659826167568, 153.265065953994, 152.086653899767, 1, ]
  - [12100, -49904.5074212556, 150.465552106892, -49754.0418691487, 99.8072681683211, 51.9157783908349, 51.9157783908349, 51.9157783908349, 139925.900260639, -544.573196053305, -564.023914974914, -506.344248507498, -563.351424677502, 1, ]
  - [12200, -49903.2435015519, 149.369099944898, -49753.874401607, 99.0799661816967, 51.9163861604187, 51.9163861604187, 51.9163861604187, 139930.81458752, -402.675195734777, -427.245698620053, -437.664816437213, -343.115072147064, 1, ]
  - [12300, -49902.2254713462, 149.945557259758, -49752.2799140865, 99.4623436030146, 51.9180652349146, 51.9180652349146, 51.9180652349146, 139944.391911268, -380.490504878598, -402.495538801655, -340.63997991043, -398.335995923708, 1, ]
  - [12400, -49902.2828498817, 149.18325884219, -49753.0995910396, 98.95669349559, 51.9210564537594, 51.9210564537594, 51.9210564537594, 139968.581665939, -770.301036712268, -841.106877538846, -696.243550874742, -773.552681723216, 1, ]
  - [12500, -49905.0968599194, 149.420006294783, -49755.6768536246, 99.1137335367041, 51.9154699402282, 51.9154699402282, 51.9154699402282, 139923.406222772, -469.503537259832, -502.342933059747, -431.285992883218, -474.881685836531, 1, ]
  - [12600, -49904.9980047318, 150.418894806091, -49754.5791099257, 99.7763193054891, 51.9098049918334, 51.9098049918334, 51.9098049918334, 139877.606441765, 127.392829065601, 104.400237577656, 163.518837883139, 114.259411736009, 1, ]
  - [12700, -49904.0860988234, 150.862024793353, -49753.22407403, 100.070257637904, 51.902793741428, 51.902793741428, 51.902793741428, 139820.935964802, 1121.17594373828, 1182.2976118903, 1147.26616876036, 1033.9640505642, 1, ]
  - [12800, -49902.3464604426, 148.628202496087, -49753.7182579465, 98.5885118300308, 51.9094435237689, 51.9094435237689, 51.9094435237689, 139874.684396368, 654.303765628657, 577.133964144929, 747.238777331622, 638.538555409421, 1, ]
  - [12900, -49903.5636982522, 150.899660607162, -49752.6640376451, 100.095222340515, 51.9144930974685, 51.9144930974685, 51.9144930974685, 139915.507964626, -238.604491920845, -189.726383520865, -225.909434086783, -300.177658154888, 1, ]
  - [13000, -49904.9097845228, 149.800548232692, -49755.1092362901, 99.3661557736508, 51.9145978900417, 51.9145978900417, 51.9145978900417, 139916.355250317, -405.617457465667, -308.854542399053, -473.788971551278, -434.20885844667, 1, ]
  - [13100, -49902.9099519363, 148.684749500574, -49754.2252024357, 98.6260207612244, 51.9142729892278, 51.9142729892278, 51.9142729892278, 139913.728321377, 16.0099521542607, -24.757482204139, 41.9832296091809, 30.8041090577404, 1, ]
  - [13200, -49904.2023154191, 147.769990638687, -49756.4323247804, 98.0192401276553, 51.909397397194, 51.909397397194, 51.909397397194, 139874.311520032, 321.967338714986, 356.421654269875, 315.583112551469, 293.897249323616, 1, ]
  - [13300, -49903.2608104537, 150.487107871991, -49752.7737025817, 99.8215666040607, 51.9148979036793, 51.9148979036793, 51.9148979036793, 139918.780987526, -127.190298343191, -102.685358438682, -44.1443987413066, -234.741137849584, 1, ]
  - [13400, -49904.2875039219, 152.019560139963, -49752.267943782, 100.838077508536, 51.9146312484392, 51.9146312484392, 51.9146312484392, 139916.62496569, -320.276433787138, -283.126391026625, -266.043020200024, -411.659890134764, 1, ]
  - [13500, -49901.3837898791, 150.720751703553, -49750.6630381755, 99.9765479418219, 51.9102022784122, 51.9102022784122, 51.9102022784122, 139880.818084789, 689.332932156786, 625.776950319777, 715.923951373173, 726.29789477741, 1, ]
  - [13600, -49904.1405498933, 152.446957545213, -49751.693592348, 101.121580056747, 51.9120958979143, 51.9120958979143, 51.9120958979143, 139896.126677095, 55.4870876320449, 67.6126801852044, 108.583418036483, -9.73483532555277, 1, ]
  - [13700, -49903.0003403663, 150.570307377207, -49752.4300329891, 99.87675475319, 51.9141745555317, 51.9141745555317, 51.9141745555317, 139912.932459361, -117.577314739357, -1.32242441698768, -163.056765721805, -188.352754079277, 1, ]
  - [13800, -49904.4932178432, 148.977296337829, -49755.5159215053, 98.8200738200728, 51.911388584195, 51.911388584195, 51.911388584195, 139890.408408564, 19.4241215915997, -17.5903698147978, 22.4304542025427, 53.4322803870539, 1, ]
  - [13900, -49906.1329918004, 149.77622071983, -49756.3567710805, 99.3500187737453, 51.904873923335, 51.904873923335, 51.904873923335, 139837.748044692, 402.216453810028, 423.070310563444, 446.693683955899, 336.88536691074, 1, ]
  - [14000, -49904.6008501405, 150.444072123622, -49754.1567780169, 99.7930200004151, 51.9035422481175, 51.9035422481175, 51.9035422481175, 139826.985258549, 902.610716580877, 972.41838692647, 876.171760912204, 859.242001903955, 1, ]
  - [14100, -49902.5598454898, 149.747778151321, -49752.8120673385, 99.3311521625989, 51.9083430461514, 51.9083430461514, 51.9083430461514, 139865.788575931, 733.112442943985, 670.231133382964, 767.433378690247, 761.672816758744, 1, ]
  - [14200, -49903.6474933953, 148.808973697985, -49754.8385196973, 98.7084215340951, 51.9121623470274, 51.9121623470274, 51.9121623470274, 139896.66389209, 58.118937271805, 4.44497490330649, 21.2437377319703, 148.668099180138, 1, ]
  - [14300, -49904.6995320602, 150.757756136067, -49753.9417759242, 100.00109383467, 51.9160805496178, 51.9160805496178, 51.9160805496178, 139928.343453467, -594.553450580917, -573.011423011656, -614.97134125061, -595.677587480486, 1, ]
  - [14400, -49902.3523655485, 152.548533888399, -49749.8038316601, 101.188957985994, 51.9165047265243, 51.9165047265243, 51.9165047265243, 139931.773307349, -230.26589540514, -306.711046137393, -215.910841800165, -168.175798277863, 1, ]
  - [14500, -49902.4755944327, 151.48917396223, -49750.9864204705, 100.486260134177, 51.9132769173713, 51.9132769173713, 51.9132769173713, 139905.674960799, 205.946096974601, 122.437153716136, 290.212314441547, 205.188822766121, 1, ]
  - [14600, -49903.5302504484, 150.958949263752, -49752.5713011847, 100.134549872729, 51.9086453099512, 51.9086453099512, 51.9086453099512, 139868.231917893, 523.644971574433, 488.142493636291, 512.077950448395, 570.714470638612, 1, ]
  - [14700, -49903.397546621, 151.411182227381, -49751.9863643936, 100.434526419144, 51.9140138919037, 51.9140138919037, 51.9140138919037, 139911.633458657, -86.0524384737238, -90.5358987928954, -98.7236186763974, -68.8977979518785, 1, ]
  - [14800, -49904.2960940864, 150.79183505031, -49753.5042590361, 100.023699163831, 51.9157644653823, 51.9157644653823, 51.9157644653823, 139925.787663023, -484.434233571532, -542.869435195368, -448.099231032964, -462.334034486263, 1, ]
  - [14900, -49902.4684376517, 150.446561562056, -49752.0218760897, 99.7946713022969, 51.9080866620853, 51.9080866620853, 51.9080866620853, 139863.71612397, 876.098310135426, 840.816678408995, 918.765390003459, 868.712861993822, 1, ]
  - [15000, -49903.5059915485, 150.582452313021, -49752.9235392355, 99.8848107689935, 51.9123060302258, 51.9123060302258, 51.9123060302258, 139897.825519049, 197.320565618406, 237.85662765541, 166.41762545062, 187.687443749187, 1, ]
  - [15100, -49904.9101933269, 148.810198742657, -49756.0999945842, 98.7092341344568, 51.9133880282674, 51.9133880282674, 51.9133880282674, 139906.573290423, -265.896451479797, -205.784372543193, -307.86469899461, -284.040282901588, 1, ]
  - [15200, -49902.5521708194, 148.457669028397, -49754.094501791, 98.4753930509941, 51.9109485600562, 51.9109485600562, 51.9109485600562, 139886.851117781, 408.546667880928, 445.186487752407, 450.521776506201, 329.931739384178, 1, ]
  - [15300, -49904.7115387163, 149.874193573221, -49754.8373451431, 99.4150064251693, 51.9097644309668, 51.9097644309668, 51.9097644309668, 139877.278552699, 155.282444140055, 258.11885609769, 123.028558995026, 84.6999173274504, 1, ]
  - [15400, -49902.8373451396, 150.33241443505, -49752.5049307045, 99.7189548824504, 51.9097916368731, 51.9097916368731, 51.9097916368731, 139877.498481849, 521.595824430329, 544.437748400481, 512.673631101694, 507.676093788812, 1, ]
  - [15500, -49902.7751977869, 151.761616977609, -49751.0135808093, 100.666977864686, 51.915870167011, 51.915870167011, 51.915870167011, 139926.642340629, -230.101034136437, -220.648501585078, -254.820905830715, -214.833694993517, 1, ]
  - [15600, -49902.6818312978, 150.041580507142, -49752.6402507907, 99.5260380358454, 51.9101184727386, 51.9101184727386, 51.9101184727386, 139880.140600206, 467.476589171957, 440.185770741152, 472.193734369333, 490.050262405386, 1, ]
  - [15700, -49902.3592116327, 149.694499959281, -49752.6647116735, 99.2958115100304, 51.9121309760006, 51.9121309760006, 51.9121309760006, 139896.410269482, 251.602580549447, 280.48797156486, 237.22407516392, 237.09569491956, 1, ]
  - [15800, -49903.5268840254, 149.628544623825, -49753.8983394016, 99.2520618160921, 51.9122076686767, 51.9122076686767, 51.9122076686767, 139897.030300623, 24.9299226490378, 104.497091296804, -13.8524253745698, -15.8548979751212, 1, ]
  - [15900, -49905.2881933635, 149.771727337946, -49755.5164660255, 99.3470382099923, 51.910642246698, 51.910642246698, 51.910642246698, 139884.374821769, -131.760152939376, -120.623005692724, -128.051612785803, -146.6058403396, 1, ]
  - [16000, -49905.9588743214, 150.414392807518, -49755.5444815138, 99.7733330260877, 51.9057629930522, 51.9057629930522, 51.9057629930522, 139844.93393846, 474.290757159358, 525.0832279619, 393.667103035009, 504.121940481164, 1, ]
  - [16100, -49902.5926810659, 151.623883058482, -49750.9687980074, 100.575615782072, 51.9099329903138, 51.9099329903138, 51.9099329903138, 139878.641169129, 421.291755804321, 419.742276145922, 434.497124023297, 409.635867243746, 1, ]
  - [16200, -49902.7899984042, 152.492506926187, -49750.297491478, 101.151794010825, 51.9136608443707, 51.9136608443707, 51.9136608443707, 139908.779020092, -1.77015212415074, -14.4186624550688, 34.6907357799202, -25.5825296973038, 1, ]
  - [16300, -49903.7310503038, 151.444473426638, -49752.2865768771, 100.456609238801, 51.9145045079532, 51.9145045079532, 51.9145045079532, 139915.600222338, -232.14987850644, -143.152651621637, -205.578731433087, -347.718252464596, 1, ]
  - [16400, -49904.2278504629, 151.2716190701, -49752.9562313928, 100.341950960708, 51.9197382749697, 51.9197382749697, 51.9197382749697, 139957.921312855, -919.448435332206, -895.633345252691, -907.364272211495, -955.34768853243, 1, ]
  - [16500, -49903.5219536414, 149.887362406849, -49753.6345912346, 99.4237416159885, 51.9175767576684, 51.9175767576684, 51.9175767576684, 139940.441898433, -528.506572964474, -449.138408364552, -548.284449956755, -588.096860572114, 1, ]
  - [16600, -49902.2285427156, 150.636476515226, -49751.5920662004, 99.9206462672958, 51.9144985443223, 51.9144985443223, 51.9144985443223, 139915.552004316, -49.1179741304964, -85.9538096955062, -31.6909062220687, -29.7092064739142, 1, ]
  - [16700, -49905.0544581503, 151.298188240636, -49753.7562699096, 100.359574903806, 51.9076367186374, 51.9076367186374, 51.9076367186374, 139860.079105854, 410.777627707183, 514.20925495645, 352.778602009746, 365.345026155354, 1, ]
  - [16800, -49902.896383446, 150.241776311906, -49752.6546071341, 99.6588325266276, 51.9100366894455, 51.9100366894455, 51.9100366894455, 139879.479466644, 532.347480099736, 546.441328586192, 553.854208063913, 496.746903649104, 1, ]
  - [16900, -49903.2707137949, 149.620211709025, -49753.6505020859, 99.2465344016745, 51.9106247859684, 51.9106247859684, 51.9106247859684, 139884.233666758, 387.925198786583, 346.899444615489, 363.60553324618, 453.270618498079, 1, ]
  - [17000, -49902.9620888655, 151.35659071029, -49751.6054981552, 100.398314607804, 51.9134574950006, 51.9134574950006, 51.9134574950006, 139907.134929683, 74.1883832755645, 6.29679282130886, 160.799876446309, 55.4684805590756, 1, ]
  - [17100, -49902.1741985965, 151.521179726499, -49750.65301887, 100.507490295185, 51.9102390540413, 51.9102390540413, 51.9102390540413, 139881.115379454, 503.642038148217, 465.230947829429, 519.078843747781, 526.616322867441, 1, ]
  - [17200, -49903.0627737409, 150.581810394981, -49752.4809633459, 99.884384969965, 51.9119239694864, 51.9119239694864, 51.9119239694864, 139894.736709629, 199.898860671492, 257.465153220473, 197.056145975077, 145.175282818926, 1, ]
  - [17300, -49902.4150757905, 149.779027430645, -49752.6360483598, 99.3518805297093, 51.9146231927224, 51.9146231927224, 51.9146231927224, 139916.559832114, -46.6715263726273, -8.04269925026358, -94.9645068714661, -37.0073729961524, 1, ]
  - [17400, -49904.2175353303, 151.373049878256, -49752.844485452, 100.409232353215, 51.9110545590763, 51.9110545590763, 51.9110545590763, 139887.708041022, 145.835350568471, 111.440993367462, 117.985724720607, 208.079333617344, 1, ]
  - [17500, -49904.8642446403, 150.706171753574, -49754.1580728867, 99.9668767250085, 51.9166827688461, 51.9166827688461, 51.9166827688461, 139933.212957228, -652.704137335591, -647.751175130877, -723.258388775474, -587.102848100422, 1, ]
  - [17600, -49904.9818602313, 149.954741376, -49755.0271188553, 99.4684356389644, 51.9136832775566, 51.9136832775566, 51.9136832775566, 139908.960394375, -414.022843672781, -370.706319845413, -487.039599700058, -384.322611472873, 1, ]
  - [17700, -49902.9338304996, 151.037551587925, -49751.8962789117, 100.186688605731, 51.9144719506789, 51.9144719506789, 51.9144719506789, 139915.336985632, -117.688990474708, -144.262275726078, -83.0249479717231, -125.779747726323, 1, ]
  - [17800, -49902.1236746428, 149.651676680155, -49752.4719979627, 99.2674058421306, 51.914281755518, 51.914281755518, 51.914281755518, 139913.799199257, 165.522058339622, 264.091042761819, 95.2954429064758, 137.179689350572, 1, ]
  - [17900, -49903.8946992298, 150.738745420562, -49753.1559538092, 99.9884835889767, 51.9134965321931, 51.9134965321931, 51.9134965321931, 139907.450546449, -272.204662420165, -304.123381611976, -223.097214094575, -289.393391553944, 1, ]
  - [18000, -49904.4899473776, 151.983577984303, -49752.5063693933, 100.814209715484, 51.9101710179182, 51.9101710179182, 51.9101710179182, 139880.56537488, 128.376692528256, 68.9843652422812, 184.649068321679, 131.496644020807, 1, ]
  - [18100, -49903.86970814, 150.957334765652, -49752.9123733744, 100.133478938933, 51.9102271976434, 51.9102271976434, 51.9102271976434, 139881.019532133, 178.274636591217, 153.566839504568, 182.047559707289, 199.209510561794, 1, ]
  - [18200, -49902.7258700438, 151.181666859451, -49751.5442031843, 100.282283586449, 51.9116882248151, 51.9116882248151, 51.9116882248151, 139892.830830222, 402.437558512743, 366.098186154212, 503.061946837252, 338.152542546764, 1, ]
  - [18300, -49905.4477636274, 150.240103690472, -49755.207659937, 99.6577230382852, 51.9115088911232, 51.9115088911232, 51.9115088911232, 139891.381017357, -84.1807780789123, -76.9563336167064, -16.6287994130901, -158.95720120694, 1, ]
  - [18400, -49903.4449987726, 150.163051001006, -49753.2819477716, 99.6066122136945, 51.9134040787878, 51.9134040787878, 51.9134040787878, 139906.703058914, -47.3046883495026, -6.14910722716772, -72.9746781299744, -62.7902796913652, 1, ]
  - [18500, -49904.1087133534, 151.526480204895, -49752.5822331485, 100.511006224653, 51.9103098860582, 51.9103098860582, 51.9103098860582, 139881.687987589, 292.000463505515, 355.464815855591, 264.659413288377, 255.877161372577, 1, ]
  - [18600, -49904.4131673957, 149.888602775292, -49754.5245646204, 99.424564380961, 51.9133894652142, 51.9133894652142, 51.9133894652142, 139906.584908138, -250.150063973657, -218.635079801986, -261.043207066033, -270.771905052952, 1, ]
  - [18700, -49903.079024873, 151.01487627057, -49752.0641486024, 100.171647545181, 51.9170741051754, 51.9170741051754, 51.9170741051754, 139936.377336755, -400.722630469647, -371.985686732466, -405.646959360497, -424.535245315978, 1, ]
  - [18800, -49901.425326909, 149.882695013537, -49751.5426318954, 99.420645626445, 51.9168654979111, 51.9168654979111, 51.9168654979111, 139934.690514372, -205.026092323308, -161.274525645078, -181.808067482333, -271.995683842514, 1, ]
  - [18900, -49900.7220229547, 150.431779755378, -49750.2902431993, 99.7848661892828, 51.9158655974799, 51.9158655974799, 51.9158655974799, 139926.605392443, 161.852830564631, 254.221557526703, 71.6216529009348, 159.715281266256, 1, ]
  - [19000, -49900.6443026237, 151.028708324703, -49749.615594299, 100.180822665444, 51.9165139220099, 51.9165139220099, 51.9165139220099, 139931.847661787, 92.7690146383523, 167.486306626924, 24.585160301914, 86.2355769862195, 1, ]
  - [19100, -49902.2332626817, 151.651624045479, -49750.5816386362, 100.594017018034, 51.9125563284252, 51.9125563284252, 51.9125563284252, 139899.849105285, 265.511064678767, 275.083583465001, 302.548156969587, 218.901453601712, 1, ]
  - [19200, -49904.1483666055, 152.366507633863, -49751.7818589716, 101.068215776593, 51.9145892827324, 51.9145892827324, 51.9145892827324, 139916.285656992, -275.507184207097, -278.114649490131, -244.937079724798, -303.469823406361, 1, ]
  - [19300, -49901.1478209699, 149.568238341348, -49751.5795826286, 99.2120592691758, 51.9156652346961, 51.9156652346961, 51.9156652346961, 139924.985311048, 35.7387750097691, 70.3348212414846, -7.98420739458441, 44.8657111824073, 1, ]
  - [19400, -49900.702972941, 148.251863316457, -49752.4511096246, 98.3388773795027, 51.9193286193534, 51.9193286193534, 51.9193286193534, 139954.608463174, -450.1718730245, -422.909093698886, -493.893085363448, -433.713440011167, 1, ]
  - [19500, -49902.6466235477, 151.402253873505, -49751.2443696742, 100.428604036266, 51.9195286256749, 51.9195286256749, 51.9195286256749, 139956.225890536, -713.063499134184, -704.676238160536, -685.727193506958, -748.787065735059, 1, ]
  - [19600, -49901.6675540516, 151.51295794854, -49750.1545961031, 100.502036600395, 51.9144425963618, 51.9144425963618, 51.9144425963618, 139915.099646214, 118.052560748465, 100.93993800796, 48.9853481623414, 204.232396075093, 1, ]
  - [19700, -49903.0723934047, 151.08078921738, -49751.9916041874, 100.215369121753, 51.9132517760712, 51.9132517760712, 51.9132517760712, 139905.471694366, 97.1575528502079, 63.9688308301812, 168.216315435688, 59.2875122847551, 1, ]
  - [19800, -49902.3615565121, 150.840949901666, -49751.5206066105, 100.05627817658, 51.9107287062981, 51.9107287062981, 51.9107287062981, 139885.07377482, 502.505670161784, 453.16423277871, 528.6542094431, 525.698568263542, 1, ]
  - [19900, -49902.9377512008, 150.655602556787, -49752.282148644, 99.9333330114198, 51.9105768269491, 51.9105768269491, 51.9105768269491, 139883.845959743, 362.738051764531, 269.653308051318, 414.054941664157, 404.505905578116, 1, ]
  - [20000, -49902.9086331738, 150.391851758649, -49752.5167814152, 99.7583810289177, 51.9146386978703, 51.9146386978703, 51.9146386978703, 139916.685197231, -107.680557052124, -95.9257235720801, -104.56026213951, -122.555685444783, 1, ]
...
Loop time of 14.7791 on 64 procs for 20000 steps with 11664 atoms

Performance: 116.922 ns/day, 0.205 hours/ns, 1353.260 timesteps/s, 15.784 Matom-step/s
74.4% CPU use with 64 MPI tasks x 1 OpenMP threads

MPI task timing breakdown:
Section |  min time  |  avg time  |  max time  |%varavg| %total
---------------------------------------------------------------
Pair    | 8.4547     | 8.721      | 9.3044     |   5.6 | 59.01
Neigh   | 0          | 0          | 0          |   0.0 |  0.00
Comm    | 3.2717     | 3.7622     | 4.0623     |   9.3 | 25.46
Output  | 0.023103   | 0.024554   | 0.098617   |   6.0 |  0.17
Modify  | 1.7244     | 1.8611     | 2.0292     |   5.7 | 12.59
Other   |            | 0.4103     |            |       |  2.78

Nlocal:         182.25 ave         189 max         180 min
Histogram: 48 0 0 0 0 0 0 0 0 16
Nghost:        1275.75 ave        1278 max        1269 min
Histogram: 16 0 0 0 0 0 0 0 0 48
Neighs:           8019 ave        8562 max        7734 min
Histogram: 16 32 0 0 0 0 0 0 0 16

Total # of neighbors = 513216
Ave neighs/atom = 44
Neighbor list builds = 0
Dangerous builds = 0
variable lambda equal 1/(1+(elapsed/${t})*(${T_n}/${T_0}-1))
variable lambda equal 1/(1+(elapsed/100000)*(${T_n}/${T_0}-1))
variable lambda equal 1/(1+(elapsed/100000)*(1600/${T_0}-1))
variable lambda equal 1/(1+(elapsed/100000)*(1600/100-1))
fix fad all adapt 1 pair eam scale * * v_lambda
fix fpf all print 1 "$(pe/atoms) ${lambda}" screen no file data/forward.dat title "# pe [eV] lambda"
run ${t}
run 100000
Per MPI rank memory allocation (min/avg/max) = 3.361 | 3.361 | 3.361 Mbytes
---
keywords: ['Step', 'PotEng', 'KinEng', 'TotEng', 'Temp', 'Lx', 'Ly', 'Lz', 'Volume', 'Press', 'Pxx', 'Pyy', 'Pzz', 'v_lambda', ]
data:
  - [20000, -49902.9086331738, 150.391851758649, -49752.5167814152, 99.7583810289177, 51.9146386978703, 51.9146386978703, 51.9146386978703, 139916.685197231, -107.680557052122, -95.9257235720943, -104.560262139497, -122.555685444775, 1, ]
  - [20100, -49164.3884269057, 148.081937441343, -49016.3064894644, 98.226161630624, 51.9180960829375, 51.9180960829375, 51.9180960829375, 139944.641362611, -305.671766739236, -300.659293254615, -269.32094683661, -347.035060126483, 0.985221674876847, ]
  - [20200, -48446.9117908962, 148.583388907116, -48298.3284019891, 98.5587859437442, 51.9207391492945, 51.9207391492945, 51.9207391492945, 139966.015517201, -433.027423914498, -524.382300465795, -367.799587176578, -406.90038410112, 0.970873786407767, ]
  - [20300, -47749.1420820776, 149.004416629372, -47600.1376654482, 98.8380633344364, 51.9246173449866, 51.9246173449866, 51.9246173449866, 139997.381951135, -398.113457094597, -389.494286976912, -414.670579799223, -390.175504507655, 0.956937799043062, ]
  - [20400, -47071.0357758652, 149.048414928086, -46921.9873609371, 98.8672484199074, 51.9266116512123, 51.9266116512123, 51.9266116512123, 140013.513511935, -284.357924225095, -247.688131153666, -275.843615154932, -329.542026366686, 0.943396226415094, ]
  - [20500, -46411.5912719488, 149.9581003965, -46261.6331715523, 99.4706637546703, 51.9281467057967, 51.9281467057967, 51.9281467057967, 140025.93111821, 168.044151103022, 125.293224817225, 171.008143455091, 207.831085036749, 0.930232558139535, ]
  - [20600, -45772.2111380521, 150.093923812244, -45622.1172142399, 99.5607585563634, 51.9281800432468, 51.9281800432468, 51.9281800432468, 140026.200804928, 279.071178356761, 282.73302177745, 270.388164584476, 284.092348708357, 0.91743119266055, ]
  - [20700, -45146.6235095536, 148.366090859749, -44998.2574186938, 98.4146471413253, 51.9333833302633, 51.9333833302633, 51.9333833302633, 140068.297573253, 332.809982206661, 297.526978661966, 353.656942553085, 347.246025404934, 0.904977375565611, ]
  - [20800, -44540.5944569871, 149.987341838865, -44390.6071151482, 99.4900602772558, 51.939621828418, 51.939621828418, 51.939621828418, 140118.780753699, 20.7656648865766, -12.4050598901754, 46.3732495523646, 28.3288049975407, 0.892857142857143, ]
  - [20900, -43950.5705545751, 149.970959294543, -43800.5995952806, 99.4791933580734, 51.9443840947297, 51.9443840947297, 51.9443840947297, 140157.326132531, -379.820899595131, -408.40094528735, -365.231148154527, -365.830605343516, 0.881057268722467, ]
  - [21000, -43377.437034084, 152.143978090186, -43225.2930559938, 100.920606802112, 51.9437184149071, 51.9437184149071, 51.9437184149071, 140151.937751672, -195.099134923242, -290.853445918179, -201.279435367497, -93.1645234840506, 0.869565217391304, ]
  - [21100, -42814.4748612291, 150.295011312892, -42664.1798499162, 99.6941445295739, 51.9513383783149, 51.9513383783149, 51.9513383783149, 140213.626210396, -202.175869458311, -203.384906759036, -119.046958161692, -284.095743454205, 0.858369098712446, ]
  - [21200, -42268.2088963365, 151.323248592063, -42116.8856477445, 100.37619801242, 51.9533636615195, 51.9533636615195, 51.9533636615195, 140230.025212713, -212.204000824397, -222.187591654933, -203.538462574937, -210.885948243323, 0.847457627118644, ]
  - [21300, -41737.1162510208, 150.623118041194, -41586.4931329797, 99.9117852836266, 51.9523455544303, 51.9523455544303, 51.9523455544303, 140221.781296922, -9.34197678238355, -27.6704035208188, 19.8942902429357, -20.2498170692675, 0.836820083682008, ]
  - [21400, -41216.6855542274, 150.637877719809, -41066.0476765075, 99.9215757185863, 51.9555152459361, 51.9555152459361, 51.9555152459361, 140247.448294364, 204.360584779964, 229.84874908803, 148.302495134593, 234.930510117267, 0.826446280991736, ]
  - [21500, -40710.1586691302, 150.625764556585, -40559.5329045736, 99.9135407782737, 51.9564364541246, 51.9564364541246, 51.9564364541246, 140254.908487259, 403.257857525275, 443.498993458894, 392.813157055971, 373.461422060961, 0.816326530612245, ]
  - [21600, -40216.4842243412, 151.270185100256, -40065.214039241, 100.340999775464, 51.9611256667083, 51.9611256667083, 51.9611256667083, 140292.887098941, 162.255253422998, 187.447442453982, 163.464826575801, 135.853491239211, 0.806451612903226, ]
  - [21700, -39734.1576679787, 148.666230562367, -39585.4914374163, 98.6137367227455, 51.9595271155205, 51.9595271155205, 51.9595271155205, 140279.939431289, 557.922726863153, 551.799524104573, 543.23257566325, 578.736080821635, 0.796812749003984, ]
  - [21800, -39261.8421074775, 148.079189408881, -39113.7629180686, 98.2243387973635, 51.9717947704614, 51.9717947704614, 51.9717947704614, 140379.323259, -276.644738064022, -140.093464586639, -330.45529571635, -359.385453889077, 0.78740157480315, ]
  - [21900, -38802.5229628575, 150.83452275428, -38651.6884401032, 100.052014901606, 51.9794990675028, 51.9794990675028, 51.9794990675028, 140441.761991931, -785.403854346888, -753.460265651708, -797.794236274914, -804.957061114044, 0.778210116731518, ]
  - [22000, -38353.0725834003, 149.729510755609, -38203.3430726447, 99.3190349780536, 51.9799905926073, 51.9799905926073, 51.9799905926073, 140445.746137935, -483.011546660672, -467.333290012209, -507.208900557822, -474.492449411984, 0.769230769230769, ]
  - [22100, -37914.0774493404, 150.741338280689, -37763.3361110597, 99.9902034928509, 51.9836997310792, 51.9836997310792, 51.9836997310792, 140475.813663191, -488.07098210542, -626.097509644853, -373.949953693763, -464.165482977647, 0.760456273764259, ]
  - [22200, -37482.3895920908, 149.379854537173, -37333.0097375536, 99.0870999505904, 51.9901551354974, 51.9901551354974, 51.9901551354974, 140528.153577933, -441.775903188264, -398.088349809484, -472.59596018633, -454.643399568977, 0.75187969924812, ]
  - [22300, -37064.6785665641, 149.279740037827, -36915.3988265262, 99.0206916960506, 51.9944934517584, 51.9944934517584, 51.9944934517584, 140563.33561074, -1023.44388575562, -981.426324317107, -1059.29292943263, -1029.61240351712, 0.743494423791822, ]
  - [22400, -36654.8610579595, 149.364511907944, -36505.4965460516, 99.0769228310542, 51.9893096676811, 51.9893096676811, 51.9893096676811, 140521.297851187, -273.458246234312, -279.931557950863, -208.297692979464, -332.14548777261, 0.735294117647059, ]
  - [22500, -36252.7035034033, 149.981532801527, -36102.7219706018, 99.4862070089209, 51.9920769244942, 51.9920769244942, 51.9920769244942, 140543.737803919, -142.503482145649, -138.297669589523, -90.7547312979334, -198.458045549488, 0.727272727272727, ]
  - [22600, -35859.173991855, 149.21886842897, -35709.9551234261, 98.9803141551189, 51.9976754925052, 51.9976754925052, 51.9976754925052, 140589.14443811, -286.495619761003, -311.376275405513, -250.459437064647, -297.65114681285, 0.719424460431655, ]
  - [22700, -35474.8405967124, 148.874243801709, -35325.9663529106, 98.7517166980343, 51.9966937875006, 51.9966937875006, 51.9966937875006, 140581.181709412, 53.0905673044793, 104.100457416938, 33.6754805271493, 21.4957639693498, 0.711743772241993, ]
  - [22800, -35099.3821874241, 149.313209810583, -34950.0689776135, 99.0428929676254, 51.9943333806489, 51.9943333806489, 51.9943333806489, 140562.037392891, 363.09402139928, 401.610416697393, 298.560076312328, 389.11157118812, 0.704225352112676, ]
  - [22900, -34731.3387718598, 150.928801624544, -34580.4099702352, 100.114552248894, 51.9928576565657, 51.9928576565657, 51.9928576565657, 140550.069267735, 673.019993496155, 738.085241720949, 698.928831939085, 582.04590682843, 0.696864111498258, ]
  - [23000, -34368.6558274726, 151.410220549691, -34217.2456069229, 100.43388851617, 52.0044709783992, 52.0044709783992, 52.0044709783992, 140644.271695248, 181.594616024188, 174.019914351583, 185.591275210802, 185.17265851018, 0.689655172413793, ]
  - [23100, -34016.0361064135, 149.65609332819, -33866.3800130853, 99.2703355065531, 52.0053701274183, 52.0053701274183, 52.0053701274183, 140651.566972542, 278.591795613259, 278.130496333038, 230.735665525629, 326.909224981111, 0.68259385665529, ]
  - [23200, -33671.6815759294, 148.562578803323, -33523.118997126, 98.5449821223324, 52.0052366491789, 52.0052366491789, 52.0052366491789, 140650.483976192, 269.292919957043, 257.194091251896, 279.399148475334, 271.285520143899, 0.675675675675676, ]
  - [23300, -33333.3096567432, 150.646209515905, -33182.6634472273, 99.9271023909416, 52.0105692514501, 52.0105692514501, 52.0105692514501, 140693.75519556, -162.57860193068, -181.469058171102, -116.118126410799, -190.148621210141, 0.668896321070234, ]
  - [23400, -32997.7129083152, 149.812027930024, -32847.9008803851, 99.3737705214392, 52.0176205729029, 52.0176205729029, 52.0176205729029, 140750.986528456, -104.800874145017, -74.0121634783718, -92.8766146489848, -147.513844307694, 0.662251655629139, ]
  - [23500, -32671.4600475683, 148.636174742284, -32522.823872826, 98.5938000046529, 52.0209464393932, 52.0209464393932, 52.0209464393932, 140777.985971066, 42.0027337985987, 3.49838774526711, 44.4694350239971, 78.0403786265321, 0.655737704918033, ]
  - [23600, -32353.3215270369, 151.34439143712, -32201.9771355997, 100.39022254878, 52.0220386810053, 52.0220386810053, 52.0220386810053, 140786.853560759, -145.417038098845, -173.135625173813, -148.186065906567, -114.929423216154, 0.649350649350649, ]
  - [23700, -32038.5157536142, 150.696033357237, -31887.8197202569, 99.9601516930802, 52.0269035361995, 52.0269035361995, 52.0269035361995, 140826.354417964, -101.368685932409, -110.745958317675, -112.551866488349, -80.8082329912027, 0.643086816720257, ]
  - [23800, -31732.6963099855, 150.139637691777, -31582.5566722937, 99.5910816261268, 52.0292048580459, 52.0292048580459, 52.0292048580459, 140845.042889481, -332.732671847999, -290.639451370668, -393.510998895971, -314.047565277357, 0.636942675159236, ]
  - [23900, -31431.1973939801, 148.919518301484, -31282.2778756786, 98.7817483170795, 52.0327196646926, 52.0327196646926, 52.0327196646926, 140873.588964943, -457.040534367911, -473.137308500752, -480.543136026118, -417.441158576862, 0.630914826498423, ]
  - [24000, -31132.8287830301, 148.217106423556, -30984.6116766065, 98.3158223314743, 52.0389974104132, 52.0389974104132, 52.0389974104132, 140924.58429707, -406.481659351162, -380.289319010291, -413.583601729193, -425.572057314001, 0.625, ]
  - [24100, -30844.8799975204, 148.074032975012, -30696.8059645454, 98.2209184159491, 52.0344184493929, 52.0344184493929, 52.0344184493929, 140887.387304475, -176.768097504303, -187.256649498332, -207.563292679877, -135.484350334701, 0.619195046439629, ]
  - [24200, -30557.2895258008, 151.099834617416, -30406.1896911834, 100.228002374496, 52.0359128631125, 52.0359128631125, 52.0359128631125, 140899.52639035, 360.81733157709, 367.266608384115, 360.322536666616, 354.862849680539, 0.613496932515337, ]
  - [24300, -30279.2718622514, 150.984495338723, -30128.2873669127, 100.151495172962, 52.0326218523225, 52.0326218523225, 52.0326218523225, 140872.794513654, 414.96236134912, 417.405971448153, 417.400364799521, 410.080747799686, 0.60790273556231, ]
  - [24400, -30003.6166372, 149.846820993059, -29853.769816207, 99.3968495619507, 52.0384566971932, 52.0384566971932, 52.0384566971932, 140920.191495644, 228.390964225309, 165.358597015591, 307.536805775209, 212.277489885126, 0.602409638554217, ]
  - [24500, -29730.2574720382, 149.086257646722, -29581.1712143915, 98.8923503672584, 52.0557205054819, 52.0557205054819, 52.0557205054819, 141060.489258327, -286.742778900438, -355.655757581147, -273.195344874159, -231.377234246008, 0.597014925373134, ]
  - [24600, -29466.0977862243, 149.763276074793, -29316.3345101495, 99.341432292385, 52.0569329588408, 52.0569329588408, 52.0569329588408, 141070.345999098, -314.714771268718, -327.097298117775, -221.698414349886, -395.348601338491, 0.591715976331361, ]
  - [24700, -29206.7721648908, 150.172375497925, -29056.5997893928, 99.6127973673824, 52.0516025752037, 52.0516025752037, 52.0516025752037, 141027.015628281, 110.127476516661, 116.264574345045, 86.4251801298368, 127.692675075101, 0.586510263929619, ]
  - [24800, -28949.8858409506, 151.33380887648, -28798.5520320741, 100.383202892434, 52.0533175329124, 52.0533175329124, 52.0533175329124, 141040.955449008, 290.679363461573, 261.793030958406, 300.238053004659, 310.007006421655, 0.581395348837209, ]
  - [24900, -28697.8382317299, 150.046303573252, -28547.7919281567, 99.5291709544385, 52.0588655546862, 52.0588655546862, 52.0588655546862, 141086.058147543, 113.986483361125, 91.0462981413795, 92.6901701741693, 158.222981767827, 0.576368876080692, ]
  - [25000, -28454.3432963968, 151.359027996978, -28302.9842683998, 100.399931316231, 52.0585853357295, 52.0585853357295, 52.0585853357295, 141083.779874201, -191.741613159828, -125.349181275671, -265.750272711127, -184.125385492686, 0.571428571428571, ]
  - [25100, -28207.844707297, 150.127066346964, -28057.71764095, 99.5827427634078, 52.0579316735289, 52.0579316735289, 52.0579316735289, 141078.465478382, 588.087050508259, 597.329919155553, 581.638230490796, 585.293001878429, 0.56657223796034, ]
  - [25200, -27968.0663231952, 151.146176543469, -27816.9201466518, 100.258742041989, 52.0633080165112, 52.0633080165112, 52.0633080165112, 141122.180116845, 492.146030415524, 529.283586068574, 457.686852379217, 489.467652798782, 0.561797752808989, ]
  - [25300, -27734.6286203452, 150.832561937884, -27583.7960584073, 100.050714246903, 52.0710380702566, 52.0710380702566, 52.0710380702566, 141185.048423967, -92.2340431938436, -82.9607658527464, -120.599758784923, -73.1416049438613, 0.557103064066852, ]
  - [25400, -27501.8097828433, 150.630462159165, -27351.1793206841, 99.9166568063205, 52.081001917636, 52.081001917636, 52.081001917636, 141266.111651805, -453.381569157034, -428.059915080811, -452.294101896438, -479.790690493852, 0.552486187845304, ]
  - [25500, -27277.1267824422, 149.929441603322, -27127.1973408389, 99.4516537167174, 52.0758035427814, 52.0758035427814, 52.0758035427814, 141223.815178251, -128.277448372748, -127.889121460543, -170.675361973009, -86.2678616846923, 0.547945205479452, ]
  - [25600, -27054.7114908934, 149.517692873984, -26905.1937980194, 99.1785312958607, 52.0718927999034, 52.0718927999034, 52.0718927999034, 141192.00106205, 101.907903041513, 90.5955137149209, 42.5271385480158, 172.601056861603, 0.543478260869565, ]
  - [25700, -26834.2849176225, 151.859855418694, -26682.4250622038, 100.732141686548, 52.0796150619239, 52.0796150619239, 52.0796150619239, 141254.826702032, -215.104584541948, -223.729127792014, -256.349155242115, -165.235470591715, 0.539083557951482, ]
  - [25800, -26617.4800347191, 149.059854749801, -26468.4201799693, 98.8748367172798, 52.0828416750323, 52.0828416750323, 52.0828416750323, 141281.082824311, -206.881083908169, -177.179077368295, -236.35622801806, -207.10794633815, 0.53475935828877, ]
  - [25900, -26405.0874734038, 148.443811398581, -26256.6436620052, 98.4662009657901, 52.0817552052941, 52.0817552052941, 52.0817552052941, 141272.241462311, -115.787857357991, -197.531768866336, -124.949619806921, -24.8821834007172, 0.530503978779841, ]
  - [26000, -26192.5104116621, 151.203635611483, -26041.3067760506, 100.296855965939, 52.0920800455827, 52.0920800455827, 52.0920800455827, 141356.276793117, -145.778782496432, -177.368620141048, -125.034589752327, -134.93313759592, 0.526315789473684, ]
  - [26100, -25986.9817897802, 150.822685187374, -25836.1591045928, 100.044162770682, 52.0877449780502, 52.0877449780502, 52.0877449780502, 141320.989009771, 63.3741572875029, -17.9052087001539, 132.653631831069, 75.374048731594, 0.522193211488251, ]
  - [26200, -25783.423442319, 151.855342824016, -25631.568099495, 100.729148378505, 52.0908138136454, 52.0908138136454, 52.0908138136454, 141345.968960452, 197.121951772936, 167.787350773409, 186.117499712539, 237.461004832861, 0.518134715025907, ]
  - [26300, -25582.2988382924, 151.450131020511, -25430.8487072719, 100.460362051196, 52.1032504835846, 52.1032504835846, 52.1032504835846, 141447.232086885, -188.967353595573, -162.377808289493, -215.952884457725, -188.5713680395, 0.51413881748072, ]
  - [26400, -25387.3428931154, 148.681212749474, -25238.6616803659, 98.6236747527157, 52.0972983129511, 52.0972983129511, 52.0972983129511, 141398.761681805, 32.7518974163255, 3.14440290390025, 50.1418329218802, 44.9694564231965, 0.510204081632653, ]
  - [26500, -25194.4473455758, 152.675257450157, -25041.7720881257, 101.273016644833, 52.0975793243582, 52.0975793243582, 52.0975793243582, 141401.049797345, 12.9160713272016, -22.0217953640864, 96.3654450410439, -35.595435695353, 0.506329113924051, ]
  - [26600, -25002.6242104825, 149.57124091142, -24853.0529695711, 99.2140509430982, 52.0978578095094, 52.0978578095094, 52.0978578095094, 141403.317367379, 317.353171193973, 289.509967630945, 307.28592207987, 355.263623871106, 0.50251256281407, ]
  - [26700, -24813.3064318414, 150.6898776942, -24662.6165541472, 99.9560684999313, 52.111242936568, 52.111242936568, 52.111242936568, 141512.334576656, -165.086202655278, -137.495165108783, -198.139069692723, -159.62437316433, 0.498753117206983, ]
  - [26800, -24628.4599890748, 151.138943481827, -24477.321045593, 100.253944185517, 52.1128497995328, 52.1128497995328, 52.1128497995328, 141525.425683013, -255.799995782828, -208.004563660451, -323.431984739444, -235.963438948588, 0.495049504950495, ]
  - [26900, -24447.1484211273, 150.956271448714, -24296.1921496786, 100.132773616304, 52.1082728274986, 52.1082728274986, 52.1082728274986, 141488.139234759, 70.3618155924954, 81.4403517120078, 108.159953613204, 21.485141452275, 0.491400491400491, ]
  - [27000, -24266.1201276095, 150.337375058417, -24115.782752551, 99.7222453782465, 52.114402001382, 52.114402001382, 52.114402001382, 141538.072232079, -34.9362507338175, -62.3039602479061, -40.716515147777, -1.78827680576926, 0.487804878048781, ]
  - [27100, -24086.9026527838, 149.358837046948, -23937.5438157368, 99.0731585649793, 52.1229981062156, 52.1229981062156, 52.1229981062156, 141608.122549727, -238.751730213993, -220.608590388349, -274.699036628972, -220.947563624658, 0.484261501210654, ]
  - [27200, -23910.7069322078, 151.384228424775, -23759.322703783, 100.416647340729, 52.1289892674127, 52.1289892674127, 52.1289892674127, 141656.958647458, -215.602225353904, -234.717921010922, -215.271591358228, -196.81716369256, 0.480769230769231, ]
  - [27300, -23740.5712932745, 153.465190292073, -23587.1061029824, 101.796997302758, 52.1174595154206, 52.1174595154206, 52.1174595154206, 141562.985500741, 433.574389250367, 443.562528273862, 491.631937967408, 365.528701509829, 0.477326968973747, ]
  - [27400, -23569.6473959076, 150.897166841125, -23418.7502290665, 100.093568168034, 52.1135662203059, 52.1135662203059, 52.1135662203059, 141531.262620495, 941.920774231083, 914.351071339285, 906.670214479565, 1004.7410368744, 0.4739336492891, ]
  - [27500, -23403.8405250244, 151.252816045672, -23252.5877089787, 100.329478481291, 52.1186590713929, 52.1186590713929, 52.1186590713929, 141572.760533991, 531.488336994235, 507.751267678354, 535.368288751249, 551.345454553102, 0.470588235294118, ]
  - [27600, -23238.4407572957, 148.530104773311, -23089.9106525224, 98.5234413498665, 52.1330718462081, 52.1330718462081, 52.1330718462081, 141690.243639027, -218.282148084507, -187.813390955684, -227.831177975434, -239.201875322403, 0.467289719626168, ]
  - [27700, -23077.2733752319, 148.171844726454, -22929.1015305055, 98.2857992047376, 52.1367961940625, 52.1367961940625, 52.1367961940625, 141720.612545128, -449.588549482124, -402.996226567296, -469.125953395901, -476.643468483175, 0.464037122969838, ]
  - [27800, -22916.0346993042, 151.636819640886, -22764.3978796633, 100.584196915302, 52.1349194359194, 52.1349194359194, 52.1349194359194, 141705.308627804, -145.557707811213, -147.42934545018, -70.9529744101829, -218.290803573276, 0.460829493087558, ]
  - [27900, -22757.308563342, 149.43500342173, -22607.8735599203, 99.1236814766151, 52.1349070228632, 52.1349070228632, 52.1349070228632, 141705.207409913, 116.633177465892, 126.150276793058, 131.329620544992, 92.4196350596252, 0.45766590389016, ]
  - [28000, -22599.2109173551, 151.457593520639, -22447.7533238344, 100.465312099503, 52.1388686381026, 52.1388686381026, 52.1388686381026, 141737.513452089, 300.061791473237, 258.766020761457, 346.871484119027, 294.547869539225, 0.454545454545455, ]
  - [28100, -22449.4057321038, 150.892804445484, -22298.5129276583, 100.090674490474, 52.1290898565106, 52.1290898565106, 52.1290898565106, 141657.778680997, 378.469529524965, 375.799293089747, 405.667925541856, 353.941369943292, 0.451467268623025, ]
  - [28200, -22294.5620895426, 149.227074645887, -22145.3350148968, 98.985757527911, 52.1476267901061, 52.1476267901061, 52.1476267901061, 141808.951551059, -136.662022715121, -185.111530344615, -127.129568550108, -97.7449692506418, 0.448430493273543, ]
  - [28300, -22145.2266110809, 149.86355866377, -21995.3630524171, 99.4079520446504, 52.1509408026135, 52.1509408026135, 52.1509408026135, 141835.989397343, -301.163260254628, -333.521080543751, -309.393364653026, -260.575335567107, 0.44543429844098, ]
  - [28400, -21995.7337312685, 150.551980450765, -21845.1817508178, 99.86459808054, 52.1602751340546, 52.1602751340546, 52.1602751340546, 141912.163351118, -546.823288553091, -528.501376036342, -545.251416956794, -566.717072666136, 0.442477876106195, ]
  - [28500, -21849.8685505017, 150.287052944883, -21699.5814975568, 99.688865560674, 52.1508938796065, 52.1508938796065, 52.1508938796065, 141835.606545278, 133.193405505896, 66.0483655111896, 118.368223549307, 215.16362745719, 0.439560439560439, ]
  - [28600, -21707.4711649151, 150.440807908773, -21557.0303570064, 99.7908547714825, 52.1431855294308, 52.1431855294308, 52.1431855294308, 141772.722277297, 586.200880890005, 495.812654462329, 551.962268288772, 710.827719918915, 0.436681222707424, ]
  - [28700, -21565.5694251548, 150.254365513975, -21415.3150596408, 99.6671832344759, 52.1532716700186, 52.1532716700186, 52.1532716700186, 141855.008171834, 2.39973535300488, -15.2276473591745, 44.9598927170498, -22.5330392988609, 0.433839479392625, ]
  - [28800, -21425.1329506362, 149.416518330736, -21275.7164323054, 99.1114198897722, 52.1562127856376, 52.1562127856376, 52.1562127856376, 141879.00870883, 5.99765738075251, -3.06808132570623, 34.8744319921194, -13.8133785241559, 0.431034482758621, ]
  - [28900, -21285.5339638573, 149.53739590037, -21135.9965679569, 99.1916007673155, 52.1605054460118, 52.1605054460118, 52.1605054460118, 141914.043184708, 10.5346699765563, 18.1526359856736, -3.87574699790983, 17.3271209419053, 0.428265524625268, ]
  - [29000, -21147.301882042, 150.802171754899, -20996.4997102871, 100.030555738193, 52.1752946000729, 52.1752946000729, 52.1752946000729, 142034.788780981, -518.367526246299, -518.783958862495, -481.710837957337, -554.607781919065, 0.425531914893617, ]
  - [29100, -21012.9807610042, 149.632256400876, -20863.3485046033, 99.2545239233472, 52.1729771724184, 52.1729771724184, 52.1729771724184, 142015.863690266, -323.417940144554, -324.792460074453, -266.331797214788, -379.129563144421, 0.422832980972516, ]
  - [29200, -20882.0533503241, 151.697917191871, -20730.3554331322, 100.624724328854, 52.1588386784016, 52.1588386784016, 52.1588386784016, 141900.439203868, 419.56992828343, 488.491906332168, 382.570683996453, 387.64719452167, 0.420168067226891, ]
  - [29300, -20746.3328561775, 150.967082846501, -20595.365773331, 100.139945065603, 52.171099196162, 52.171099196162, 52.171099196162, 142000.528578033, 377.108851684641, 325.588232540577, 414.945249207058, 390.793073306288, 0.417536534446764, ]
  - [29400, -20619.0074095235, 151.47322864643, -20467.534180877, 100.47568323875, 52.1677263532321, 52.1677263532321, 52.1677263532321, 141972.989508131, 253.618285351568, 250.742090986607, 226.174882419737, 283.937882648362, 0.4149377593361, ]
  - [29500, -20490.096757176, 149.397958909113, -20340.6987982669, 99.0991089977111, 52.1729183375518, 52.1729183375518, 52.1729183375518, 142015.383241836, 57.6209385830178, 38.0821667810081, -11.1885509126552, 145.9691998807, 0.412371134020619, ]
  - [29600, -20362.7633682711, 151.066780762114, -20211.696587509, 100.206076990553, 52.181686760883, 52.181686760883, 52.181686760883, 142086.998574114, -213.906077520339, -250.34263740945, -130.107991943717, -261.267603207852, 0.409836065573771, ]
  - [29700, -20236.6998452254, 149.393253433234, -20087.3065917921, 99.0959877471231, 52.1843679696161, 52.1843679696161, 52.1843679696161, 142108.901918001, -114.616903487998, -120.76926779456, -34.8869722416771, -188.194470427757, 0.407331975560081, ]
  - [29800, -20112.9977589682, 150.073385317555, -19962.9243736507, 99.5471348995298, 52.1872678824724, 52.1872678824724, 52.1872678824724, 142132.594434492, -90.4159742577418, -58.4699886581516, -174.107619844984, -38.6703142700896, 0.404858299595142, ]
  - [29900, -19994.5033217154, 149.247987781596, -19845.2553339338, 98.9996296927671, 52.1757829399517, 52.1757829399517, 52.1757829399517, 142038.776984667, 88.1114203514275, 66.3896139196547, 37.1593207756833, 160.785326358944, 0.402414486921529, ]
  - [30000, -19871.6616707467, 148.529990447355, -19723.1316802994, 98.5233655148255, 52.1904392987594, 52.1904392987594, 52.1904392987594, 142158.508169958, -293.597388496082, -244.800771650856, -307.038189262314, -328.953204575075, 0.4, ]
  - [30100, -19751.7769071639, 150.083929630002, -19601.6929775339, 99.5541291849678, 52.1889921604047, 52.1889921604047, 52.1889921604047, 142146.683169356, -35.0617884451901, -27.4127556819098, 5.48671639575889, -83.2593260494198, 0.397614314115308, ]
  - [30200, -19631.4178564304, 150.901469947944, -19480.5163864824, 100.096422517951, 52.1971563667243, 52.1971563667243, 52.1971563667243, 142213.403929199, -0.706860655682897, -5.07209923264589, 8.54387952079322, -5.59236225519666, 0.395256916996047, ]
  - [30300, -19515.7343130928, 150.19864693539, -19365.5356661574, 99.6302238172741, 52.187166774957, 52.187166774957, 52.187166774957, 142131.768333823, 533.822671607549, 439.426342498861, 579.11112786714, 582.930544456647, 0.392927308447937, ]
  - [30400, -19401.81386945, 150.794097473541, -19251.0197719764, 100.025199881298, 52.1969161994224, 52.1969161994224, 52.1969161994224, 142211.440899712, -55.9080419404447, -59.5961921601176, -18.0197853241113, -90.1081483371051, 0.390625, ]
  - [30500, -19285.2229254506, 147.539249186919, -19137.6836762637, 97.8661840052959, 52.2148284504008, 52.2148284504008, 52.2148284504008, 142357.897901299, -577.572065594621, -656.661425166056, -571.470513967076, -504.584257650731, 0.388349514563107, ]
  - [30600, -19175.0917936463, 151.133857215648, -19023.9579364306, 100.250570347949, 52.2054135997141, 52.2054135997141, 52.2054135997141, 142280.90616878, -153.694291950019, -190.030336443378, -155.15675488693, -115.895784519748, 0.386100386100386, ]
  - [30700, -19063.2297104596, 151.462935202626, -18911.766775257, 100.468855360263, 52.1900547677489, 52.1900547677489, 52.1900547677489, 142155.365988012, 765.908148790633, 812.44589173985, 738.922657018453, 746.355897613594, 0.383877159309021, ]
  - [30800, -18952.2581491693, 150.196671449065, -18802.0614777203, 99.6289134316703, 52.2000991105446, 52.2000991105446, 52.2000991105446, 142237.458182667, 494.706665285067, 565.740055633877, 522.393989182876, 395.985951038447, 0.381679389312977, ]
  - [30900, -18844.3511548832, 149.694710826523, -18694.6564440566, 99.2959513831319, 52.2154489416767, 52.2154489416767, 52.2154489416767, 142362.973062092, -281.087899154724, -237.65634481893, -243.558385433496, -362.048967211746, 0.379506641366224, ]
  - [31000, -18735.4641284144, 147.871640809725, -18587.5924876047, 98.0866670286175, 52.2141975211302, 52.2141975211302, 52.2141975211302, 142352.737489091, 42.4105564789604, -6.25227802278557, 162.571093931436, -29.0871464717691, 0.377358490566038, ]
  - [31100, -18630.3925712695, 151.03688396299, -18479.3556873065, 100.186245754727, 52.2036950282326, 52.2036950282326, 52.2036950282326, 142266.855220334, 583.894721225694, 621.997277836543, 618.506922310334, 511.179963530205, 0.375234521575985, ]
[...]
  - [232700, -23743.0937246867, 151.855709990432, -23591.2380146963, 100.72939192845, 52.1123195681452, 52.1123195681452, 52.1123195681452, 141521.105800703, 359.941335600973, 392.453927147457, 356.091591739618, 331.278487915845, 0.477326968973747, ]
  - [232800, -23912.0169332551, 152.820203224094, -23759.196730031, 101.369162516939, 52.1215855963069, 52.1215855963069, 52.1215855963069, 141596.610311577, 113.582943064558, 119.751996447477, 70.3598452166431, 150.636987529554, 0.480769230769231, ]
  - [232900, -24085.5543992803, 151.680095819492, -23933.8743034608, 100.612903001864, 52.1293907912234, 52.1293907912234, 52.1293907912234, 141660.232013051, -385.365712367117, -403.828199895026, -383.913447213266, -368.355489993058, 0.484261501210654, ]
  - [233000, -24263.8131961647, 149.255119701797, -24114.5580764629, 99.0043604597904, 52.1211742671386, 52.1211742671386, 52.1211742671386, 141593.258013925, -222.933544571731, -230.908904448178, -271.963379842148, -165.928349424865, 0.487804878048781, ]
  - [233100, -24444.8856746345, 150.096503839043, -24294.7891707955, 99.5624699475953, 52.1134299089707, 52.1134299089707, 52.1134299089707, 141530.152030702, -7.90393149938702, -16.3543140260911, -45.6651020012434, 38.307621529174, 0.491400491400492, ]
  - [233200, -24627.1305986598, 152.088803573543, -24475.0417950863, 100.884008273734, 52.1086788692423, 52.1086788692423, 52.1086788692423, 141491.446801983, 203.752691193548, 206.601653765229, 198.389980803727, 206.266439011688, 0.495049504950495, ]
  - [233300, -24812.0887681206, 151.996542866029, -24660.0922252545, 100.822809620306, 52.1082427458209, 52.1082427458209, 52.1082427458209, 141487.89419508, 93.0120069669895, 31.9441845393251, 76.6902663297529, 170.40157003189, 0.498753117206983, ]
  - [233400, -25001.2724424765, 151.311787665049, -24849.9606548114, 100.368595715416, 52.1007809006688, 52.1007809006688, 52.1007809006688, 141427.120149067, 309.038192864532, 284.337885450772, 295.697030421191, 347.079662721633, 0.502512562814071, ]
  - [233500, -25192.517261386, 151.729518646059, -25040.7877427399, 100.645686301667, 52.1049808080892, 52.1049808080892, 52.1049808080892, 141461.32474354, -227.566752258943, -221.587839262488, -240.411140792252, -220.70127672209, 0.506329113924051, ]
  - [233600, -25383.8300146094, 153.277117315136, -25230.5528972943, 101.672244163043, 52.1122617384031, 52.1122617384031, 52.1122617384031, 141520.634657601, -416.419146328154, -468.431752521989, -356.036622604846, -424.789063857626, 0.510204081632653, ]
  - [233700, -25580.3231024504, 150.942539780277, -25429.3805626701, 100.123665084186, 52.1073240187483, 52.1073240187483, 52.1073240187483, 141480.410553712, -265.834469759727, -246.76131811381, -178.563005537557, -372.179085627814, 0.51413881748072, ]
  - [233800, -25781.7038926241, 151.310160016905, -25630.3937326072, 100.367516058894, 52.0959517629264, 52.0959517629264, 52.0959517629264, 141387.797835828, 157.089373846878, 168.243326433709, 200.250679309365, 102.774115797561, 0.518134715025906, ]
  - [233900, -25985.8551988692, 151.925117264309, -25833.9300816049, 100.775431372693, 52.0875740580404, 52.0875740580404, 52.0875740580404, 141319.597828088, 454.197875347985, 412.033424970529, 483.891300258135, 466.668900815293, 0.52219321148825, ]
  - [234000, -26192.6862735068, 150.058413088502, -26042.6278604183, 99.5372034749659, 52.0815629535677, 52.0815629535677, 52.0815629535677, 141270.677014342, 565.42951212243, 586.708210086046, 550.551374051213, 559.028952230029, 0.526315789473684, ]
  - [234100, -26403.3899394182, 153.040169878534, -26250.3497695397, 101.515071467927, 52.0819598272356, 52.0819598272356, 52.0819598272356, 141273.906585565, 129.735369973081, 135.36550277006, 145.989337513726, 107.851269635456, 0.530503978779841, ]
  - [234200, -26615.7165213369, 152.241418856623, -26463.4751024803, 100.985241507997, 52.087932874783, 52.087932874783, 52.087932874783, 141322.518381866, -271.131954062217, -246.240757455503, -267.715051552181, -299.440053178967, 0.53475935828877, ]
  - [234300, -26829.2351264328, 151.109542747611, -26678.1255836851, 100.234442000977, 52.0969446955592, 52.0969446955592, 52.0969446955592, 141395.882412232, -704.537982924358, -709.68490589325, -762.905239592765, -641.02380328706, 0.539083557951482, ]
  - [234400, -27052.0221318568, 153.265808602439, -26898.7563232543, 101.664742833304, 52.0865396828119, 52.0865396828119, 52.0865396828119, 141311.178857282, -642.680457950442, -627.986865456479, -650.904234305958, -649.150274088889, 0.543478260869565, ]
  - [234500, -27275.2089334043, 151.469529857252, -27123.739403547, 100.47322974665, 52.0763115170174, 52.0763115170174, 52.0763115170174, 141227.947928271, 72.6197925498168, 57.4994320067111, 79.8801819746906, 80.4797636680491, 0.547945205479452, ]
  - [234600, -27501.6120143503, 150.570468791485, -27351.0415455588, 99.8768618230006, 52.0747561641675, 52.0747561641675, 52.0747561641675, 141215.294225017, 122.409920175285, 64.0845112673322, 144.053563715853, 159.091685542668, 0.552486187845304, ]
  - [234700, -27733.2163638264, 149.041289333474, -27584.1750744929, 98.8625218487935, 52.0706239609019, 52.0706239609019, 52.0706239609019, 141181.680011132, 78.7654568783269, 32.548247580749, 98.7337519928496, 105.014371061382, 0.557103064066852, ]
  - [234800, -27968.5220065816, 150.495302030997, -27818.0267045506, 99.8270019785619, 52.0715762245589, 52.0715762245589, 52.0715762245589, 141189.425912642, -195.562184698827, -140.247845896503, -270.54489303507, -175.893815164909, 0.561797752808989, ]
  - [234900, -28207.0315156737, 150.545116005158, -28056.4863996685, 99.8600447355784, 52.0637670788655, 52.0637670788655, 52.0637670788655, 141125.913136543, 190.928239599724, 229.053614577629, 229.034448512651, 114.696655708893, 0.56657223796034, ]
  - [235000, -28450.4700794992, 151.783095298477, -28298.6869842007, 100.681224929882, 52.0597355428074, 52.0597355428074, 52.0597355428074, 141093.131596682, 362.355147850225, 340.730710877295, 413.825297490533, 332.509435182847, 0.571428571428571, ]
  - [235100, -28697.7489507382, 150.4185062861, -28547.3304444521, 99.7760615912254, 52.0568795173186, 52.0568795173186, 52.0568795173186, 141069.911532111, 345.007698607077, 345.44941757891, 384.097532518256, 305.476145724064, 0.576368876080691, ]
  - [235200, -28950.4333439103, 152.170034552951, -28798.2633093573, 100.937890654331, 52.0535676031642, 52.0535676031642, 52.0535676031642, 141042.988190725, 193.243997283523, 169.631007209936, 269.628917567672, 140.472067072962, 0.581395348837209, ]
  - [235300, -29203.3851240021, 150.511027007929, -29052.8740969942, 99.8374327181409, 52.0580349986432, 52.0580349986432, 52.0580349986432, 141079.305521985, 97.3144308311959, 97.376291996895, 57.098993055035, 137.468007441657, 0.586510263929619, ]
  - [235400, -29467.1900255096, 152.067893564717, -29315.1221319449, 100.870138183012, 52.0520614028159, 52.0520614028159, 52.0520614028159, 141030.745061537, -69.480743578537, -89.8268485683511, -9.76483996045418, -108.850542206806, 0.591715976331361, ]
  - [235500, -29730.5277951463, 151.386713839428, -29579.1410813069, 100.418295973544, 52.0481838028592, 52.0481838028592, 52.0481838028592, 140999.229302563, 324.811590748309, 387.097913431324, 309.663178613836, 277.673680199767, 0.597014925373134, ]
  - [235600, -29999.9172621623, 152.00334250811, -29847.9139196542, 100.827319979595, 52.0446579667938, 52.0446579667938, 52.0446579667938, 140970.576631798, 534.709890504404, 530.012491807512, 572.03940756304, 502.077772142658, 0.602409638554217, ]
  - [235700, -30276.5004338122, 152.967275728379, -30123.5331580838, 101.466719098294, 52.042154950504, 52.042154950504, 52.042154950504, 140950.238251616, 243.137502497282, 213.322018563959, 264.783799467137, 251.30668946075, 0.60790273556231, ]
  - [235800, -30558.4120423054, 150.566523524222, -30407.8455187812, 99.8742448363069, 52.0391678902732, 52.0391678902732, 52.0391678902732, 140925.969309271, -147.13862657106, -124.178135410222, -192.114244568154, -125.123499734806, 0.613496932515337, ]
  - [235900, -30841.4995213944, 149.194939265633, -30692.3045821288, 98.9644413896339, 52.0407017407034, 52.0407017407034, 52.0407017407034, 140938.431022558, -194.940603981348, -170.170077977838, -245.269362771427, -169.382371194779, 0.619195046439628, ]
  - [236000, -31131.5268693861, 152.436690530124, -30979.090178856, 101.114769709036, 52.0424788249451, 52.0424788249451, 52.0424788249451, 140952.869798894, -414.219509572029, -425.578180821287, -378.434336186164, -438.646011708637, 0.625, ]
  - [236100, -31429.0248356087, 153.801051560065, -31275.2237840486, 102.01978182169, 52.0364944277836, 52.0364944277836, 52.0364944277836, 140904.250614334, -400.80496080294, -415.91802028692, -374.72564248454, -411.771219637361, 0.630914826498423, ]
  - [236200, -31730.5313659827, 153.509114589645, -31577.0222513931, 101.826133301567, 52.0373384833393, 52.0373384833393, 52.0373384833393, 140911.107318229, -613.577181009728, -644.169543902587, -554.418090617483, -642.143908509115, 0.636942675159235, ]
  - [236300, -32038.5532125721, 152.522129235179, -31886.0310833369, 101.171443171022, 52.0290654719483, 52.0290654719483, 52.0290654719483, 140843.910922058, -237.813435658498, -335.245969842024, -228.708660307071, -149.485676826398, 0.643086816720257, ]
  - [236400, -32350.4494403159, 151.583706160073, -32198.8657341558, 100.548965519486, 52.0305101226125, 52.0305101226125, 52.0305101226125, 140855.643358376, -430.582780018305, -475.550794183538, -417.113039971769, -399.084505899609, 0.649350649350649, ]
  - [236500, -32669.2476229152, 152.518444068967, -32516.7291788462, 101.168998715349, 52.0277252520357, 52.0277252520357, 52.0277252520357, 140833.027181403, -297.137556821622, -236.854636240756, -336.210477353213, -318.347556870895, 0.655737704918033, ]
  - [236600, -32995.8864496807, 151.371563026073, -32844.5148866546, 100.408246089898, 52.027569455506, 52.027569455506, 52.027569455506, 140831.7620157, -568.747375971669, -595.908377321922, -539.745957869962, -570.587792723122, 0.662251655629139, ]
  - [236700, -33328.6420982644, 149.6766140975, -33178.9654841669, 99.2839474057345, 52.0266338203262, 52.0266338203262, 52.0266338203262, 140824.164229599, -841.341456346636, -816.913292936145, -815.657439514035, -891.453636589728, 0.668896321070234, ]
  - [236800, -33667.189286314, 150.603786071018, -33516.5855002429, 99.8989619423067, 52.0233235868559, 52.0233235868559, 52.0233235868559, 140797.285811657, -692.833493733618, -594.127033182111, -770.857513476952, -713.515934541791, 0.675675675675675, ]
  - [236900, -34015.4861591093, 152.695804746676, -33862.7903543626, 101.286646140123, 52.0108309353084, 52.0108309353084, 52.0108309353084, 140695.878848721, -70.1943167169081, -73.1306563275261, -105.800596566421, -31.6516972567775, 0.68259385665529, ]
  - [237000, -34367.4996679963, 151.531565603544, -34215.9681023928, 100.514379486769, 52.0057997814218, 52.0057997814218, 52.0057997814218, 140655.053074533, 220.442939205981, 228.111338113206, 197.741499896278, 235.47597960846, 0.689655172413793, ]
  - [237100, -34730.8394151613, 151.579524054627, -34579.2598911067, 100.546191432568, 52.0036519225485, 52.0036519225485, 52.0036519225485, 140637.626476262, -248.337275859764, -287.434132593555, -271.911993866818, -185.66570111892, 0.696864111498258, ]
  - [237200, -35096.9371581742, 148.899413472351, -34948.0377447018, 98.7684123206024, 52.0023541139878, 52.0023541139878, 52.0023541139878, 140627.097437211, -22.4120720101913, 60.2844059241435, -66.813777413746, -60.7068445409712, 0.704225352112676, ]
  - [237300, -35472.27507588, 153.450308317936, -35318.8247675621, 101.78712574636, 52.0054178049281, 52.0054178049281, 52.0054178049281, 140651.953812743, -326.065824524437, -313.005179161798, -346.786830330847, -318.405464080664, 0.711743772241993, ]
  - [237400, -35858.288586375, 152.040712623755, -35706.2478737512, 100.852108438491, 51.9981998586575, 51.9981998586575, 51.9981998586575, 140593.397758943, -117.702528229306, -168.614734848511, -100.552438790499, -83.940411048908, 0.719424460431655, ]
  - [237500, -36250.8071618971, 151.053892966123, -36099.7532689309, 100.197528218475, 51.9916108877091, 51.9916108877091, 51.9916108877091, 140539.958499349, 259.358736349457, 231.485965177007, 309.943378763022, 236.646865108341, 0.727272727272727, ]
  - [237600, -36652.8628070512, 151.585331554707, -36501.2774754965, 100.550043681204, 51.9855915120574, 51.9855915120574, 51.9855915120574, 140491.150729124, 392.711460356719, 339.658408219249, 405.488613303238, 432.987359547668, 0.735294117647059, ]
  - [237700, -37062.6405346318, 152.847338087781, -36909.7931965441, 101.387161697341, 51.9899441347988, 51.9899441347988, 51.9899441347988, 140526.442595258, -190.00133802833, -195.98129394728, -118.193185275377, -255.829534862334, 0.743494423791821, ]
  - [237800, -37481.9113263925, 152.664338518051, -37329.2469878744, 101.265773865542, 51.9856551051927, 51.9856551051927, 51.9856551051927, 140491.666311428, 2.36224153684371, -2.0696571595582, -35.5618447345961, 44.7182265046852, 0.75187969924812, ]
  - [237900, -37913.5414592051, 151.693688350759, -37761.8477708544, 100.621919241091, 51.9808623850432, 51.9808623850432, 51.9808623850432, 140452.812795197, -243.694618001972, -192.049735294434, -276.287991719295, -262.746126992187, 0.760456273764258, ]
  - [238000, -38350.6142508648, 152.337045311548, -38198.2772055533, 101.048672739246, 51.9779802189985, 51.9779802189985, 51.9779802189985, 140429.451165677, -28.9369421292918, -0.0458400966116237, -34.942377160827, -51.8226091304366, 0.769230769230769, ]
  - [238100, -38799.9802251066, 152.64240599603, -38647.3378191106, 101.251225518254, 51.9775594674541, 51.9775594674541, 51.9775594674541, 140426.040946777, -156.341608133107, -57.0829820083131, -178.786443091717, -233.155399299292, 0.778210116731517, ]
  - [238200, -39260.9030892783, 153.542995343368, -39107.3600939349, 101.848607186288, 51.9737545424303, 51.9737545424303, 51.9737545424303, 140395.204286667, -111.530637955177, -141.563882322088, -106.179015909909, -86.8490156335343, 0.787401574803149, ]
  - [238300, -39730.0810093673, 152.552238379013, -39577.5287709883, 101.191415259987, 51.9735962114311, 51.9735962114311, 51.9735962114311, 140393.921205689, -174.263454454703, -185.21533449705, -197.780830447076, -139.794198419983, 0.796812749003984, ]
  - [238400, -40212.581159984, 152.249633964276, -40060.3315260198, 100.99069077822, 51.9673582071958, 51.9673582071958, 51.9673582071958, 140343.375957908, 195.446065484925, 225.095259258043, 82.8615815939261, 278.381355602805, 0.806451612903226, ]
  - [238500, -40707.7665098351, 151.36656057478, -40556.3999492603, 100.404927848675, 51.9653278357966, 51.9653278357966, 51.9653278357966, 140326.9268991, -154.595553461648, -175.283561261201, -166.06328623376, -122.439812889982, 0.816326530612245, ]
  - [238600, -41213.7422008049, 150.997031335249, -41062.7451694697, 100.159810588348, 51.9668181827335, 51.9668181827335, 51.9668181827335, 140339.000822947, -547.02740559372, -499.323685465253, -555.605270262068, -586.153261053838, 0.826446280991735, ]
  - [238700, -41732.5748543941, 151.454913941247, -41581.1199404528, 100.463534672742, 51.9611936964462, 51.9611936964462, 51.9611936964462, 140293.438132087, -168.327329489039, -118.517677414673, -144.427427983865, -242.03688306858, 0.836820083682008, ]
  - [238800, -42264.2506476109, 153.349155608692, -42110.9014920022, 101.72002882327, 51.9621454132616, 51.9621454132616, 51.9621454132616, 140301.147081413, -480.724569145989, -496.802970066495, -483.868226877504, -461.502510493967, 0.847457627118644, ]
  - [238900, -42813.721549047, 152.864347409553, -42660.8572016375, 101.39844437245, 51.9540756359946, 51.9540756359946, 51.9540756359946, 140235.790473696, -566.855381769451, -591.808042904004, -581.455020638506, -527.303081765843, 0.858369098712446, ]
  - [239000, -43372.2015212118, 151.228269570135, -43220.9732516417, 100.313196238398, 51.9459174658478, 51.9459174658478, 51.9459174658478, 140169.738612368, 418.081859792364, 466.930067800193, 405.242367441263, 382.073144135635, 0.869565217391304, ]
  - [239100, -43947.305820739, 152.717265433989, -43794.588555305, 101.300881508577, 51.945009691116, 51.945009691116, 51.945009691116, 140162.390181761, 81.3723415516642, 101.457727529548, -25.6145005364356, 168.273797661881, 0.881057268722467, ]
  - [239200, -44538.4666229853, 150.354221144473, -44388.1124018408, 99.7334197753432, 51.9431831789581, 51.9431831789581, 51.9431831789581, 140147.605355874, -126.235054166986, -97.3608037261521, -184.781926694678, -96.5624320801281, 0.892857142857143, ]
  - [239300, -45146.0487138169, 153.388363571843, -44992.6603502451, 101.74603636877, 51.9361273701514, 51.9361273701514, 51.9361273701514, 140090.50140129, 175.853172806264, 201.627444437772, 147.575643990366, 178.356429990652, 0.904977375565611, ]
  - [239400, -45767.4639963409, 150.117810260386, -45617.3461860805, 99.5766029878754, 51.9303049519271, 51.9303049519271, 51.9303049519271, 140043.391185853, 707.688752848428, 741.870844232665, 687.177420771792, 694.017993540827, 0.91743119266055, ]
  - [239500, -46409.5437252983, 151.336584573293, -46258.207140725, 100.385044076095, 51.9278021474376, 51.9278021474376, 51.9278021474376, 140023.143798347, 497.173896486353, 517.45870367812, 461.080310773407, 512.98267500753, 0.930232558139535, ]
  - [239600, -47069.3719239545, 150.900912977253, -46918.4710109772, 100.096053066456, 51.9326704634786, 51.9326704634786, 51.9326704634786, 140062.529684088, -675.332028308261, -608.201767448133, -700.070982807684, -717.723334668967, 0.943396226415094, ]
  - [239700, -47745.5109129605, 150.530490948312, -47594.9804220122, 99.8503435983406, 51.9296684089448, 51.9296684089448, 51.9296684089448, 140038.241444564, -347.119431874579, -358.119945837733, -263.829675458525, -419.408674327478, 0.956937799043062, ]
  - [239800, -48445.9283848489, 152.926387483075, -48293.0019973658, 101.439596982921, 51.9250945709869, 51.9250945709869, 51.9250945709869, 140001.242027999, -695.387013106134, -693.857220753869, -652.86951876552, -739.434299799014, 0.970873786407767, ]
  - [239900, -49161.6520793642, 152.607214875414, -49009.0448644887, 101.227882436975, 51.916824846777, 51.916824846777, 51.916824846777, 139934.361806194, 267.595828822349, 285.825831543457, 267.950873815793, 249.010781107798, 0.985221674876847, ]
  - [240000, -49902.7266734109, 153.267733160307, -49749.4589402506, 101.666019436888, 51.9109128913933, 51.9109128913933, 51.9109128913933, 139886.562763957, 346.532339808558, 348.871541844189, 422.78957712674, 267.935900454744, 1, ]
...
Loop time of 130.903 on 64 procs for 100000 steps with 11664 atoms

Performance: 66.003 ns/day, 0.364 hours/ns, 763.927 timesteps/s, 8.910 Matom-step/s
70.2% CPU use with 64 MPI tasks x 1 OpenMP threads

MPI task timing breakdown:
Section |  min time  |  avg time  |  max time  |%varavg| %total
---------------------------------------------------------------
Pair    | 61.648     | 63.544     | 65.097     |   9.4 | 48.54
Neigh   | 0.027173   | 0.028378   | 0.030004   |   0.4 |  0.02
Comm    | 19.29      | 21.262     | 22.945     |  16.1 | 16.24
Output  | 0.32903    | 0.38153    | 0.3841     |   1.1 |  0.29
Modify  | 43.09      | 43.554     | 44.115     |   3.0 | 33.27
Other   |            | 2.132      |            |       |  1.63

Nlocal:         182.25 ave         194 max         170 min
Histogram: 1 3 1 10 11 18 12 6 1 1
Nghost:        1275.75 ave        1288 max        1264 min
Histogram: 1 1 6 12 13 16 10 1 3 1
Neighs:        8054.83 ave        8597 max        7390 min
Histogram: 1 0 6 4 10 19 13 6 4 1

Total # of neighbors = 515509
Ave neighs/atom = 44.196588
Neighbor list builds = 74
Dangerous builds = 0
#------------------------------------------------------------------------------#
Total wall time: 0:04:53
